 Gaussian 09, Revision A.02,

 -----------------------------------
 #p opt b3lyp/6-31G* scf=(xqc,tight)
 -----------------------------------

 ------------------------------
 F[B-](c1cocc1)(F)F.[K+]_conf_0
 ------------------------------
 Symbolic Z-matrix:
 Charge =  0 Multiplicity = 1

 SCF Done:  E(RB3LYP) =  -1153.87713832     A.U. after   15 cycles
 SCF Done:  E(RB3LYP) =  -1153.89220715     A.U. after   11 cycles
 SCF Done:  E(RB3LYP) =  -1153.90787850     A.U. after   12 cycles
 SCF Done:  E(RB3LYP) =  -1153.92445578     A.U. after   11 cycles
 SCF Done:  E(RB3LYP) =  -1153.93179410     A.U. after   12 cycles
 SCF Done:  E(RB3LYP) =  -1153.93970729     A.U. after   11 cycles
 SCF Done:  E(RB3LYP) =  -1153.94246616     A.U. after   11 cycles
 SCF Done:  E(RB3LYP) =  -1153.94262329     A.U. after   11 cycles
 SCF Done:  E(RB3LYP) =  -1153.94310881     A.U. after   10 cycles
 SCF Done:  E(RB3LYP) =  -1153.94369307     A.U. after   11 cycles
 SCF Done:  E(RB3LYP) =  -1153.94544037     A.U. after   11 cycles
 SCF Done:  E(RB3LYP) =  -1153.94569139     A.U. after   11 cycles
 SCF Done:  E(RB3LYP) =  -1153.94586526     A.U. after   10 cycles
 SCF Done:  E(RB3LYP) =  -1153.94606647     A.U. after   11 cycles
 SCF Done:  E(RB3LYP) =  -1153.94616526     A.U. after   10 cycles
 SCF Done:  E(RB3LYP) =  -1153.94621303     A.U. after   10 cycles
 SCF Done:  E(RB3LYP) =  -1153.94621721     A.U. after    9 cycles
 SCF Done:  E(RB3LYP) =  -1153.94621760     A.U. after    8 cycles
 Optimization completed.
    -- Stationary point found.
 Normal termination of Gaussian 09 at Mon Oct  4 15:39:10 2021.

 ----------------------------------------------------------------------
 #p freq b3lyp/6-31G* volume NMR pop=NPA density=current Geom=AllCheck
 Guess=Read
 ----------------------------------------------------------------------

 F[B-](c1cocc1)(F)F.[K+]_conf_0
 ------------------------------
 Redundant internal coordinates taken from checkpoint file:
 C4H3BF3KO_a071_conf_0.chk
 Charge =  0 Multiplicity = 1

 SCF Done:  E(RB3LYP) =  -1153.94621760     A.U. after    1 cycles

  1  F    Isotropic =   333.1306   Anisotropy =   100.3920

  2  B    Isotropic =   107.3873   Anisotropy =    11.5016

  3  C    Isotropic =    65.2463   Anisotropy =   157.8137

  4  C    Isotropic =    54.0771   Anisotropy =    85.6887

  5  O    Isotropic =    48.4968   Anisotropy =   291.6896

  6  C    Isotropic =    53.7765   Anisotropy =    97.1480

  7  C    Isotropic =    81.3215   Anisotropy =   120.5091

  8  F    Isotropic =   327.7039   Anisotropy =    62.2265

  9  F    Isotropic =   321.6373   Anisotropy =   100.2898

 10  K    Isotropic =  1307.3248   Anisotropy =    13.1776

 11  H    Isotropic =    25.2921   Anisotropy =     5.3591

 12  H    Isotropic =    25.1331   Anisotropy =     2.3326

 13  H    Isotropic =    26.0144   Anisotropy =     4.2557

  Exact polarizability:  72.235   3.659  52.678   4.534  -7.158  60.074
 Approx polarizability: 101.369  11.846  76.987   2.541 -15.959  94.882

                     1                      2                      3
                     A                      A                      A
 Frequencies --    36.6568                62.0913               123.1609
 Red. masses --     4.8275                13.5521                 9.9179
 Frc consts  --     0.0038                 0.0308                 0.0886
 IR Inten    --     3.2526                12.5558                 2.4145

                     4                      5                      6
                     A                      A                      A
 Frequencies --   138.0276               159.3454               227.8129
 Red. masses --     9.4370                13.4325                21.6958
 Frc consts  --     0.1059                 0.2009                 0.6634
 IR Inten    --     1.4524                 2.9073                39.6826

                     7                      8                      9
                     A                      A                      A
 Frequencies --   318.9171               344.8092               349.3198
 Red. masses --    10.9713                 9.6238                10.3231
 Frc consts  --     0.6575                 0.6741                 0.7422
 IR Inten    --     6.7231                 1.4466                 3.6584

                    10                     11                     12
                     A                      A                      A
 Frequencies --   474.0636               490.3098               622.6382
 Red. masses --    12.1316                11.8759                 4.5834
 Frc consts  --     1.6064                 1.6821                 1.0469
 IR Inten    --     1.2566                 5.2325                10.8187

                    13                     14                     15
                     A                      A                      A
 Frequencies --   622.7062               683.6164               729.7629
 Red. masses --    12.5316                 3.4742                 1.3224
 Frc consts  --     2.8630                 0.9566                 0.4149
 IR Inten    --    10.2469                 7.6294                 1.8044

                    16                     17                     18
                     A                      A                      A
 Frequencies --   790.4259               860.9452               880.6903
 Red. masses --     1.3446                 1.2929                 7.8835
 Frc consts  --     0.4950                 0.5647                 3.6026
 IR Inten    --    66.2116                 8.9938               183.6643

                    19                     20                     21
                     A                      A                      A
 Frequencies --   895.2034               942.8461              1002.4902
 Red. masses --     6.4815                11.1515                 4.4894
 Frc consts  --     3.0603                 5.8407                 2.6583
 IR Inten    --     6.7628               217.7662                85.0601

                    22                     23                     24
                     A                      A                      A
 Frequencies --  1061.0619              1087.9676              1183.5296
 Red. masses --     2.2970                 2.1287                 3.1900
 Frc consts  --     1.5237                 1.4846                 2.6327
 IR Inten    --    71.9730                 9.3947                30.1068

                    25                     26                     27
                     A                      A                      A
 Frequencies --  1198.7169              1256.3855              1271.4859
 Red. masses --     5.4318                 1.4530                 3.0118
 Frc consts  --     4.5986                 1.3514                 2.8688
 IR Inten    --   218.4411                13.1355               131.8066

                    28                     29                     30
                     A                      A                      A
 Frequencies --  1384.4305              1532.1349              1601.5780
 Red. masses --     3.1262                 3.6998                 5.4730
 Frc consts  --     3.5303                 5.1171                 8.2713
 IR Inten    --     3.9897                47.6594                11.6374

                    31                     32                     33
                     A                      A                      A
 Frequencies --  3256.0053              3275.2260              3290.2942
 Red. masses --     1.0907                 1.0953                 1.1040
 Frc consts  --     6.8129                 6.9228                 7.0418
 IR Inten    --     3.1814                 3.3075                 4.8511

 - Thermochemistry -
 -------------------
 Temperature   298.150 Kelvin.  Pressure   1.00000 Atm.
 Atom     1 has atomic number  9 and mass  18.99840

 Molecular mass:   173.98661 amu.
 Principal axes and moments of inertia in atomic units:
                           1         2         3
     Eigenvalues --  1283.018862034.271742614.57694
           X            0.99990  -0.00591   0.01280
           Y            0.00617   0.99976  -0.02079
           Z           -0.01268   0.02087   0.99970
 This molecule is an asymmetric top.
 Rotational symmetry number  1.
 Warning -- assumption of classical behavior for rotation
           may cause significant error
 Rotational temperatures (Kelvin)      0.06751     0.04258     0.03313
 Rotational constants (GHZ):           1.40664     0.88717     0.69026
 Zero-point vibrational energy     192327.5 (Joules/Mol)
                                   45.96739 (Kcal/Mol)
 Warning -- explicit consideration of  11 degrees of freedom as
           vibrations may cause significant error
 Vibrational temperatures:     52.74    89.34   177.20   198.59   229.26
          (Kelvin)            327.77   458.85   496.10   502.59   682.07
                              705.45   895.84   895.93   983.57  1049.96
                             1137.25  1238.71  1267.12  1288.00  1356.54
                             1442.36  1526.63  1565.34  1702.83  1724.68
                             1807.66  1829.38  1991.88  2204.40  2304.31
                             4684.66  4712.31  4733.99

 Zero-point correction=                           0.073254 (Hartree/Particle)
 Thermal correction to Energy=                    0.082849
 Thermal correction to Enthalpy=                  0.083793
 Thermal correction to Gibbs Free Energy=         0.036498
 Sum of electronic and zero-point Energies=          -1153.872964
 Sum of electronic and thermal Energies=             -1153.863369
 Sum of electronic and thermal Enthalpies=           -1153.862424
 Sum of electronic and thermal Free Energies=        -1153.909720

                     E (Thermal)             CV                S
                      KCal/Mol        Cal/Mol-Kelvin    Cal/Mol-Kelvin
 Total                   51.988             33.099             99.541
 Electronic               0.000              0.000              0.000
 Translational            0.889              2.981             41.369
 Rotational               0.889              2.981             30.302
 Vibrational             50.211             27.137             27.870
 Vibration     1          0.594              1.982              5.432
 Vibration     2          0.597              1.972              4.390
 Vibration     3          0.610              1.930              3.050
 Vibration     4          0.614              1.915              2.831
 Vibration     5          0.621              1.892              2.558
 Vibration     6          0.651              1.799              1.896
 Vibration     7          0.705              1.637              1.316
 Vibration     8          0.723              1.586              1.190
 Vibration     9          0.727              1.577              1.169
 Vibration    10          0.831              1.308              0.726
 Vibration    11          0.846              1.272              0.683

 Optimization completed.
    -- Stationary point found.
 Normal termination of Gaussian 09 at Mon Oct  4 17:14:48 2021.
 Gaussian 09:  AM64L-G09RevA.02 11-Jun-2009

 ----------------------------------------------------------------------
 #p TD(NStates=10, Root=1) b3lyp/6-31G* volume pop=NPA density=current
 Geom=AllCheck Guess=Read
 ----------------------------------------------------------------------

 F[B-](c1cocc1)(F)F.[K+]_conf_0
 ------------------------------
 Redundant internal coordinates taken from checkpoint file:
 C4H3BF3KO_a071_conf_0.chk
 Charge =  0 Multiplicity = 1

                         Standard orientation:
 ---------------------------------------------------------------------
 Center     Atomic      Atomic             Coordinates (Angstroms)
 Number     Number       Type             X           Y           Z
 ---------------------------------------------------------------------
      1          9           0        1.499658    0.354887    1.173475
      2          5           0        0.797377    1.027855    0.092005
      3          6           0       -0.708690    0.434917    0.048867
      4          6           0       -1.346804   -0.273764    1.030601
      5          8           0       -2.618513   -0.640612    0.663953
      6          6           0       -2.797351   -0.157212   -0.599747
      7          6           0       -1.679377    0.491132   -1.024175
      8          9           0        0.901294    2.388128    0.219734
      9          9           0        1.482327    0.584883   -1.114896
     10         19           0        1.451890   -1.737953   -0.212062
     11          1           0       -1.072373   -0.534676    2.043295
     12          1           0       -3.762087   -0.358132   -1.042370
     13          1           0       -1.546420    0.978008   -1.981500
 ---------------------------------------------------------------------

 SCF Done:  E(RB3LYP) =  -1153.94621760     A.U. after    1 cycles

 Excitation energies and oscillator strengths:

 Excited State   1:      Singlet-A      3.6488 eV  339.79 nm  f=0.0167  <S**2>=0.000
      43 -> 44         0.70437
 This state for optimization and/or second-order correction.
 Total Energy, E(TD-HF/TD-KS) =  -1153.81212616
 Copying the excited state density for this state as the 1-particle RhoCI density.

 Excited State   2:      Singlet-A      4.7895 eV  258.87 nm  f=0.0119  <S**2>=0.000
      42 -> 44         0.70453

 Excited State   3:      Singlet-A      5.0842 eV  243.86 nm  f=0.0030  <S**2>=0.000
      43 -> 45         0.55601
      43 -> 46        -0.42384

 Excited State   4:      Singlet-A      5.1494 eV  240.77 nm  f=0.0095  <S**2>=0.000
      43 -> 45         0.42760
      43 -> 46         0.56027

 Excited State   5:      Singlet-A      5.3468 eV  231.89 nm  f=0.0056  <S**2>=0.000
      41 -> 44         0.70472

 Excited State   6:      Singlet-A      5.8152 eV  213.21 nm  f=0.0013  <S**2>=0.000
      43 -> 47         0.68090
      43 -> 49         0.15990

 Excited State   7:      Singlet-A      6.1270 eV  202.36 nm  f=0.0362  <S**2>=0.000
      43 -> 47        -0.16759
      43 -> 48         0.44360
      43 -> 49         0.50134
      43 -> 50         0.12086

 Excited State   8:      Singlet-A      6.2379 eV  198.76 nm  f=0.0117  <S**2>=0.000
      42 -> 45         0.52937
      42 -> 46        -0.43992

 Excited State   9:      Singlet-A      6.2701 eV  197.74 nm  f=0.0184  <S**2>=0.000
      42 -> 45         0.45249
      42 -> 46         0.50557
      43 -> 48         0.14385
      43 -> 49        -0.10443

 Excited State  10:      Singlet-A      6.3165 eV  196.29 nm  f=0.0652  <S**2>=0.000
      42 -> 46        -0.20320
      43 -> 48         0.48465
      43 -> 49        -0.44738

 The electronic state is 1-A.
 Alpha  occ. eigenvalues -- -129.80156 -24.62341 -24.62218 -24.60399 -19.19742
 Alpha  occ. eigenvalues --  -13.23650 -10.57835 -10.57825 -10.57791 -10.22001
 Alpha  occ. eigenvalues --  -10.21510 -10.16734 -10.14330  -6.78493  -1.40368
 Alpha  occ. eigenvalues --   -1.13813  -1.09825  -1.09462  -1.08728  -0.77540
 Alpha  occ. eigenvalues --   -0.76908  -0.76816  -0.76581  -0.72286  -0.57434
 Alpha  occ. eigenvalues --   -0.55071  -0.52343  -0.48617  -0.43922  -0.43780
 Alpha  occ. eigenvalues --   -0.42667  -0.42407  -0.40860  -0.37599  -0.36437
 Alpha  occ. eigenvalues --   -0.36085  -0.34768  -0.32965  -0.32729  -0.31380
 Alpha  occ. eigenvalues --   -0.27720  -0.25471  -0.21315
 Alpha virt. eigenvalues --   -0.05701  -0.00328  -0.00222   0.02116   0.02642
 Alpha virt. eigenvalues --    0.03540   0.05825   0.06491   0.08586   0.09332
 Alpha virt. eigenvalues --    0.15088   0.17002   0.17184   0.20272   0.21263

 Mulliken atomic charges:
              1
     1  F   -0.377318
     2  B    0.670873
     3  C   -0.082063
     4  C    0.137728
     5  O   -0.363749
     6  C    0.199486
     7  C   -0.178768
     8  F   -0.275441
     9  F   -0.374364
    10  K   -0.131680
    11  H    0.276320
    12  H    0.256755
    13  H    0.242220
 Sum of Mulliken atomic charges =  -0.00000

 Dipole moment (field-independent basis, Debye):
    X=            -11.3193    Y=              3.7982    Z=             -0.0828  Tot=             11.9398
 Quadrupole moment (field-independent basis, Debye-Ang):
   XX=            -60.2727   YY=            -99.4426   ZZ=            -65.5274
   XY=              6.3129   XZ=              5.5491   YZ=             -4.6266

 Summary of Natural Population Analysis:

                                       Natural Population
                Natural  -----------------------------------------------
    Atom  No    Charge         Core      Valence    Rydberg      Total
 -----------------------------------------------------------------------
      F    1   -0.56237      1.99996     7.55662    0.00580     9.56237
      B    2    1.23105      1.99890     1.71988    0.05017     3.76895
      C    3   -0.34998      1.99902     4.32955    0.02141     6.34998
      C    4    0.33887      1.99900     3.64125    0.02088     5.66113
      O    5   -0.47253      1.99978     6.45408    0.01868     8.47253
      C    6    0.31531      1.99905     3.66523    0.02042     5.68469
      C    7   -0.23133      1.99911     4.21882    0.01339     6.23133
      F    8   -0.51274      1.99995     7.50576    0.00703     9.51274
      F    9   -0.55707      1.99996     7.55139    0.00572     9.55707
      K   10   -0.02990     17.99358     1.03432    0.00200    19.02990
      H   11    0.27254      0.00000     0.72746    0.00000     0.72746
      H   12    0.26245      0.00000     0.73755    0.00000     0.73755
      H   13    0.29291      0.00000     0.70709    0.00000     0.70709
 =======================================================================
   * Total *   -0.00281     35.98830    49.84901    0.16549    86.00281

 Normal termination of Gaussian 09 at Mon Oct  4 17:49:05 2021.
