 Gaussian 09, Revision A.02,

 -----------------------------------
 #p opt b3lyp/6-31G* scf=(xqc,tight)
 -----------------------------------

 -------------------
 OB(c1cscc1)O_conf_0
 -------------------
 Symbolic Z-matrix:
 Charge =  0 Multiplicity = 1

 SCF Done:  E(RB3LYP) =  -728.971342553     A.U. after   14 cycles
 SCF Done:  E(RB3LYP) =  -728.984762532     A.U. after   13 cycles
 SCF Done:  E(RB3LYP) =  -728.988494374     A.U. after   13 cycles
 SCF Done:  E(RB3LYP) =  -728.994109874     A.U. after   13 cycles
 SCF Done:  E(RB3LYP) =  -728.942531459     A.U. after   16 cycles
 SCF Done:  E(RB3LYP) =  -728.996031356     A.U. after   14 cycles
 SCF Done:  E(RB3LYP) =  -729.005881905     A.U. after   13 cycles
 SCF Done:  E(RB3LYP) =  -729.008874312     A.U. after   14 cycles
 SCF Done:  E(RB3LYP) =  -729.015165171     A.U. after   13 cycles
 SCF Done:  E(RB3LYP) =  -729.016184079     A.U. after   13 cycles
 SCF Done:  E(RB3LYP) =  -729.016258457     A.U. after   16 cycles
 SCF Done:  E(RB3LYP) =  -729.016276575     A.U. after   16 cycles
 SCF Done:  E(RB3LYP) =  -729.016277438     A.U. after   15 cycles
 SCF Done:  E(RB3LYP) =  -729.016277425     A.U. after   15 cycles
 Optimization completed.
    -- Stationary point found.
 Normal termination of Gaussian 09 at Sun Oct  3 17:43:07 2021.

 ----------------------------------------------------------------------
 #p freq b3lyp/6-31G* volume NMR pop=NPA density=current Geom=AllCheck
 Guess=Read
 ----------------------------------------------------------------------

 OB(c1cscc1)O_conf_0
 -------------------
 Redundant internal coordinates taken from checkpoint file:
 C4H5BO2S_9d2f_conf_0.chk
 Charge =  0 Multiplicity = 1

 SCF Done:  E(RB3LYP) =  -729.016277425     A.U. after    1 cycles

  1  O    Isotropic =   225.5763   Anisotropy =    62.5346

  2  B    Isotropic =    87.4420   Anisotropy =    15.0181

  3  C    Isotropic =    63.9228   Anisotropy =   147.6118

  4  C    Isotropic =    52.7512   Anisotropy =   139.1668

  5  S    Isotropic =   297.9647   Anisotropy =   126.3828

  6  C    Isotropic =    66.9976   Anisotropy =   117.3858

  7  C    Isotropic =    65.4016   Anisotropy =   133.1022

  8  O    Isotropic =   228.2861   Anisotropy =    62.5822

  9  H    Isotropic =    29.4172   Anisotropy =    13.0695

 10  H    Isotropic =    24.5095   Anisotropy =     5.5498

 11  H    Isotropic =    25.4038   Anisotropy =     3.4695

 12  H    Isotropic =    24.7979   Anisotropy =     5.8818

 13  H    Isotropic =    29.4989   Anisotropy =    13.2831

  Exact polarizability: 102.273   2.266  74.928   0.005  -0.001  33.077
 Approx polarizability: 157.055   8.603 130.564   0.013  -0.004  50.842

                     1                      2                      3
                     A                      A                      A
 Frequencies --    60.2740               141.9814               149.4266
 Red. masses --     6.6935                 5.8358                 5.2179
 Frc consts  --     0.0143                 0.0693                 0.0686
 IR Inten    --     0.0481                 3.4210                 7.8001

                     4                      5                      6
                     A                      A                      A
 Frequencies --   329.9459               390.5303               423.3576
 Red. masses --     7.5085                 1.0673                 7.0633
 Frc consts  --     0.4816                 0.0959                 0.7459
 IR Inten    --     5.4136                 1.0606                 5.5479

                     7                      8                      9
                     A                      A                      A
 Frequencies --   455.9639               507.7164               562.6681
 Red. masses --     3.6862                 1.5567                 3.8876
 Frc consts  --     0.4515                 0.2364                 0.7252
 IR Inten    --     9.4560               131.7284                47.9451

                    10                     11                     12
                     A                      A                      A
 Frequencies --   591.1088               645.2961               684.5989
 Red. masses --     2.8491                 6.6716                 2.6609
 Frc consts  --     0.5865                 1.6368                 0.7348
 IR Inten    --    96.5735                 2.8463                67.2504

                    13                     14                     15
                     A                      A                      A
 Frequencies --   707.7146               809.8955               819.7465
 Red. masses --     1.4302                 6.4587                 1.3447
 Frc consts  --     0.4220                 2.4961                 0.5324
 IR Inten    --     0.3905                 0.0340                42.9530

                    16                     17                     18
                     A                      A                      A
 Frequencies --   861.5335               913.1860               915.0317
 Red. masses --     4.8313                 4.8173                 1.2975
 Frc consts  --     2.1128                 2.3669                 0.6401
 IR Inten    --    42.1911                13.5761                 0.3671

                    19                     20                     21
                     A                      A                      A
 Frequencies --   949.7875              1026.8282              1118.5831
 Red. masses --     1.1032                 2.2230                 1.1873
 Frc consts  --     0.5863                 1.3810                 0.8753
 IR Inten    --   181.6073               142.9684                 9.9249

                    22                     23                     24
                     A                      A                      A
 Frequencies --  1133.9108              1239.0959              1357.2422
 Red. masses --     1.4797                 1.3844                 2.0805
 Frc consts  --     1.1210                 1.2523                 2.2580
 IR Inten    --    14.1817                 1.3041               125.5464

                    25                     26                     27
                     A                      A                      A
 Frequencies --  1380.7409              1432.3996              1474.6413
 Red. masses --     7.7680                 6.3138                 5.9379
 Frc consts  --     8.7254                 7.6325                 7.6077
 IR Inten    --   206.9960               154.0946               127.4179

                    28                     29                     30
                     A                      A                      A
 Frequencies --  1581.1890              3229.2913              3269.0689
 Red. masses --     5.7661                 1.0899                 1.0937
 Frc consts  --     8.4938                 6.6965                 6.8864
 IR Inten    --    87.8197                 3.1005                 0.6360

                    31                     32                     33
                     A                      A                      A
 Frequencies --  3270.4895              3781.6643              3786.7275
 Red. masses --     1.0971                 1.0668                 1.0652
 Frc consts  --     6.9137                 8.9886                 8.9994
 IR Inten    --     1.4264                10.2790                37.4810

 - Thermochemistry -
 -------------------
 Temperature   298.150 Kelvin.  Pressure   1.00000 Atm.
 Atom     1 has atomic number  8 and mass  15.99491

 Molecular mass:   128.01033 amu.
 Principal axes and moments of inertia in atomic units:
                           1         2         3
     Eigenvalues --   432.398791679.831962112.23067
           X            0.99990  -0.01436  -0.00001
           Y            0.01436   0.99990  -0.00000
           Z            0.00001   0.00000   1.00000
 This molecule is an asymmetric top.
 Rotational symmetry number  1.
 Rotational temperatures (Kelvin)      0.20031     0.05156     0.04101
 Rotational constants (GHZ):           4.17379     1.07436     0.85442
 Zero-point vibrational energy     239262.9 (Joules/Mol)
                                   57.18521 (Kcal/Mol)
 Warning -- explicit consideration of  10 degrees of freedom as
           vibrations may cause significant error
 Vibrational temperatures:     86.72   204.28   214.99   474.72   561.89
          (Kelvin)            609.12   656.03   730.49   809.55   850.47
                              928.44   984.98  1018.24  1165.26  1179.43
                             1239.55  1313.87  1316.52  1366.53  1477.37
                             1609.39  1631.44  1782.78  1952.77  1986.58
                             2060.90  2121.68  2274.98  4646.22  4703.46
                             4705.50  5440.96  5448.25

 Zero-point correction=                           0.091130 (Hartree/Particle)
 Thermal correction to Energy=                    0.098740
 Thermal correction to Enthalpy=                  0.099684
 Thermal correction to Gibbs Free Energy=         0.058367
 Sum of electronic and zero-point Energies=           -728.925147
 Sum of electronic and thermal Energies=              -728.917537
 Sum of electronic and thermal Enthalpies=            -728.916593
 Sum of electronic and thermal Free Energies=         -728.957910

                     E (Thermal)             CV                S
                      KCal/Mol        Cal/Mol-Kelvin    Cal/Mol-Kelvin
 Total                   61.960             28.349             86.959
 Electronic               0.000              0.000              0.000
 Translational            0.889              2.981             40.454
 Rotational               0.889              2.981             28.819
 Vibrational             60.183             22.388             17.686
 Vibration     1          0.597              1.973              4.448
 Vibration     2          0.615              1.911              2.777
 Vibration     3          0.618              1.903              2.680
 Vibration     4          0.713              1.616              1.260
 Vibration     5          0.758              1.490              0.998
 Vibration     6          0.786              1.419              0.881
 Vibration     7          0.814              1.348              0.778
 Vibration     8          0.863              1.233              0.639
 Vibration     9          0.918              1.112              0.519
 Vibration    10          0.949              1.051              0.465

 Optimization completed.
    -- Stationary point found.
 Normal termination of Gaussian 09 at Sun Oct  3 18:10:39 2021.
 Gaussian 09:  AM64L-G09RevA.02 11-Jun-2009

 ----------------------------------------------------------------------
 #p TD(NStates=10, Root=1) b3lyp/6-31G* volume pop=NPA density=current
 Geom=AllCheck Guess=Read
 ----------------------------------------------------------------------

 OB(c1cscc1)O_conf_0
 -------------------
 Redundant internal coordinates taken from checkpoint file:
 C4H5BO2S_9d2f_conf_0.chk
 Charge =  0 Multiplicity = 1

                         Standard orientation:
 ---------------------------------------------------------------------
 Center     Atomic      Atomic             Coordinates (Angstroms)
 Number     Number       Type             X           Y           Z
 ---------------------------------------------------------------------
      1          8           0        2.536204    1.117656   -0.000329
      2          5           0        1.805837   -0.048177    0.000503
      3          6           0        0.256096    0.069033    0.000286
      4          6           0       -0.590970   -1.015322    0.000462
      5         16           0       -2.259945   -0.558904   -0.000285
      6          6           0       -1.839042    1.129417    0.000026
      7          6           0       -0.485593    1.302500    0.000216
      8          8           0        2.364025   -1.305717   -0.000139
      9          1           0        3.495852    0.993986   -0.000294
     10          1           0       -0.316649   -2.061898    0.000664
     11          1           0       -2.615934    1.882359   -0.000108
     12          1           0       -0.009413    2.276991    0.000342
     13          1           0        3.331307   -1.317365   -0.000743
 ---------------------------------------------------------------------

 SCF Done:  E(RB3LYP) =  -729.016277425     A.U. after    1 cycles

 Excitation energies and oscillator strengths:

 Excited State   1:      Singlet-A      5.4238 eV  228.59 nm  f=0.0283  <S**2>=0.000
      32 -> 34        -0.33413
      33 -> 34         0.58350
      33 -> 35         0.18493
 This state for optimization and/or second-order correction.
 Total Energy, E(TD-HF/TD-KS) =  -728.816957316
 Copying the excited state density for this state as the 1-particle RhoCI density.

 Excited State   2:      Singlet-A      5.7337 eV  216.24 nm  f=0.1306  <S**2>=0.000
      32 -> 34         0.54983
      33 -> 34         0.37241
      33 -> 35        -0.20960

 Excited State   3:      Singlet-A      6.0514 eV  204.88 nm  f=0.0003  <S**2>=0.000
      33 -> 36         0.13799
      33 -> 37         0.69071

 Excited State   4:      Singlet-A      6.3698 eV  194.64 nm  f=0.0000  <S**2>=0.000
      32 -> 36         0.14270
      32 -> 37         0.68822

 Excited State   5:      Singlet-A      6.5539 eV  189.18 nm  f=0.0000  <S**2>=0.000
      33 -> 36         0.68529
      33 -> 37        -0.13812

 Excited State   6:      Singlet-A      6.7680 eV  183.19 nm  f=0.3536  <S**2>=0.000
      30 -> 37        -0.10236
      32 -> 34         0.21303
      32 -> 35         0.38035
      33 -> 35         0.52886

 Excited State   7:      Singlet-A      6.9885 eV  177.41 nm  f=0.0002  <S**2>=0.000
      32 -> 36         0.68349
      32 -> 37        -0.13881

 Excited State   8:      Singlet-A      7.0828 eV  175.05 nm  f=0.1085  <S**2>=0.000
      32 -> 34        -0.14771
      32 -> 35         0.57373
      33 -> 35        -0.34614

 Excited State   9:      Singlet-A      7.2166 eV  171.81 nm  f=0.0003  <S**2>=0.000
      30 -> 34         0.69927

 Excited State  10:      Singlet-A      7.6799 eV  161.44 nm  f=0.0227  <S**2>=0.000
      31 -> 34         0.70035

 The electronic state is 1-A.
 Alpha  occ. eigenvalues --  -88.89948 -19.16372 -19.16307 -10.20665 -10.20328
 Alpha  occ. eigenvalues --  -10.18119 -10.16415  -7.96090  -6.78732  -5.92478
 Alpha  occ. eigenvalues --   -5.92109  -5.91824  -1.03895  -1.00522  -0.86418
 Alpha  occ. eigenvalues --   -0.72132  -0.71209  -0.58218  -0.56324  -0.53489
 Alpha  occ. eigenvalues --   -0.52653  -0.47950  -0.42542  -0.39432  -0.39049
 Alpha  occ. eigenvalues --   -0.37462  -0.36045  -0.35803  -0.34176  -0.32299
 Alpha  occ. eigenvalues --   -0.32109  -0.24169  -0.22626
 Alpha virt. eigenvalues --   -0.01281   0.03673   0.03946   0.04136   0.10042
 Alpha virt. eigenvalues --    0.11729   0.12990   0.14941   0.16498   0.19079
 Alpha virt. eigenvalues --    0.21645   0.25889   0.29526   0.30201   0.33237

 Mulliken atomic charges:
              1
     1  O   -0.580314
     2  B    0.255243
     3  C    0.109894
     4  C   -0.438294
     5  S    0.273970
     6  C   -0.294611
     7  C   -0.095624
     8  O   -0.575575
     9  H    0.378963
    10  H    0.191167
    11  H    0.201386
    12  H    0.193913
    13  H    0.379883
 Sum of Mulliken atomic charges =  -0.00000

 Dipole moment (field-independent basis, Debye):
    X=              0.2706    Y=              1.6087    Z=             -0.0005  Tot=              1.6313
 Quadrupole moment (field-independent basis, Debye-Ang):
   XX=            -38.2124   YY=            -49.3865   ZZ=            -55.2757
   XY=             -4.6219   XZ=             -0.0029   YZ=              0.0017

 Summary of Natural Population Analysis:

                                       Natural Population
                Natural  -----------------------------------------------
    Atom  No    Charge         Core      Valence    Rydberg      Total
 -----------------------------------------------------------------------
      O    1   -0.90361      1.99976     6.89415    0.00971     8.90361
      B    2    0.98098      1.99917     1.99230    0.02755     4.01902
      C    3   -0.51156      1.99894     4.48989    0.02273     6.51156
      C    4   -0.41635      1.99900     4.39480    0.02255     6.41635
      S    5    0.41735      9.99903     5.52616    0.05746    15.58265
      C    6   -0.34068      1.99911     4.32298    0.01859     6.34068
      C    7   -0.04777      1.99903     4.03283    0.01591     6.04777
      O    8   -0.89946      1.99975     6.88961    0.01009     8.89946
      H    9    0.47427      0.00000     0.52362    0.00211     0.52573
      H   10    0.26027      0.00000     0.73814    0.00160     0.73973
      H   11    0.25612      0.00000     0.74320    0.00068     0.74388
      H   12    0.25540      0.00000     0.74364    0.00095     0.74460
      H   13    0.47505      0.00000     0.52293    0.00203     0.52495
 =======================================================================
   * Total *    0.00000     23.99380    41.81424    0.19196    66.00000

 Normal termination of Gaussian 09 at Sun Oct  3 19:41:58 2021.
