 Gaussian 09, Revision A.02,

 -----------------------------------
 #p opt b3lyp/6-31G* scf=(xqc,tight)
 -----------------------------------

 ---------------
 Cc1cscn1_conf_0
 ---------------
 Symbolic Z-matrix:
 Charge =  0 Multiplicity = 1

 SCF Done:  E(RB3LYP) =  -608.367255385     A.U. after   15 cycles
 SCF Done:  E(RB3LYP) =  -608.368302832     A.U. after   12 cycles
 SCF Done:  E(RB3LYP) =  -608.368485203     A.U. after   10 cycles
 SCF Done:  E(RB3LYP) =  -608.368492512     A.U. after   14 cycles
 SCF Done:  E(RB3LYP) =  -608.368499907     A.U. after   14 cycles
 SCF Done:  E(RB3LYP) =  -608.368502746     A.U. after    9 cycles
 Optimization completed.
    -- Stationary point found.
 Normal termination of Gaussian 09 at Mon Oct  4 21:44:43 2021.

 ----------------------------------------------------------------------
 #p freq b3lyp/6-31G* volume NMR pop=NPA density=current Geom=AllCheck
 Guess=Read
 ----------------------------------------------------------------------

 Cc1cscn1_conf_0
 ---------------
 Redundant internal coordinates taken from checkpoint file:
 C4H5NS_6eca_conf_0.chk
 Charge =  0 Multiplicity = 1

 SCF Done:  E(RB3LYP) =  -608.368502746     A.U. after    1 cycles

  1  C    Isotropic =   171.8225   Anisotropy =    26.8298

  2  C    Isotropic =    45.0018   Anisotropy =   102.3852

  3  C    Isotropic =    75.7512   Anisotropy =    97.3678

  4  S    Isotropic =   263.0974   Anisotropy =   147.5442

  5  C    Isotropic =    41.8756   Anisotropy =   108.8039

  6  N    Isotropic =   -68.5780   Anisotropy =   437.0252

  7  H    Isotropic =    30.1368   Anisotropy =     6.6251

  8  H    Isotropic =    29.6775   Anisotropy =     8.0839

  9  H    Isotropic =    29.6758   Anisotropy =     8.0818

 10  H    Isotropic =    25.7962   Anisotropy =     3.6903

 11  H    Isotropic =    24.0040   Anisotropy =     5.5944

  Exact polarizability:  79.108   1.631  63.684   0.002   0.001  32.958
 Approx polarizability: 127.161  12.247 117.247   0.001   0.004  49.820

                     1                      2                      3
                     A                      A                      A
 Frequencies --   129.0958               232.4024               333.2130
 Red. masses --     1.0761                 3.3555                 2.8229
 Frc consts  --     0.0106                 0.1068                 0.1847
 IR Inten    --     0.4385                 3.4468                 2.2604

                     4                      5                      6
                     A                      A                      A
 Frequencies --   487.4708               555.4870               652.1133
 Red. masses --     4.4768                 7.2254                 5.2215
 Frc consts  --     0.6268                 1.3136                 1.3083
 IR Inten    --     1.9107                 2.4851                 0.5033

                     7                      8                      9
                     A                      A                      A
 Frequencies --   668.5269               734.2332               816.8617
 Red. masses --     7.3743                 1.1994                 1.1903
 Frc consts  --     1.9418                 0.3810                 0.4679
 IR Inten    --     2.2609                 7.7286                37.9091

                    10                     11                     12
                     A                      A                      A
 Frequencies --   823.7350               880.7808               950.0395
 Red. masses --     5.0943                 4.5801                 3.9357
 Frc consts  --     2.0366                 2.0934                 2.0929
 IR Inten    --    10.9900                30.5225                16.4616

                    13                     14                     15
                     A                      A                      A
 Frequencies --  1028.3344              1079.6233              1173.4435
 Red. masses --     1.4792                 1.5077                 1.4798
 Frc consts  --     0.9216                 1.0354                 1.2005
 IR Inten    --     8.6921                 4.3898                 4.6116

                    16                     17                     18
                     A                      A                      A
 Frequencies --  1266.4778              1359.7932              1441.8166
 Red. masses --     1.4670                 2.9089                 1.2749
 Frc consts  --     1.3863                 3.1690                 1.5616
 IR Inten    --     1.6281                13.5109                 1.3246

                    19                     20                     21
                     A                      A                      A
 Frequencies --  1495.0000              1506.6117              1513.8637
 Red. masses --     5.2035                 1.0443                 1.2585
 Frc consts  --     6.8521                 1.3966                 1.6994
 IR Inten    --    26.1779                 5.6808                29.5481

                    22                     23                     24
                     A                      A                      A
 Frequencies --  1585.8289              3054.3493              3110.3791
 Red. masses --     4.1999                 1.0365                 1.1014
 Frc consts  --     6.2230                 5.6970                 6.2778
 IR Inten    --    27.9880                23.0120                15.1098

                    25                     26                     27
                     A                      A                      A
 Frequencies --  3139.2674              3244.9471              3277.0820
 Red. masses --     1.1021                 1.0938                 1.0948
 Frc consts  --     6.3994                 6.7858                 6.9273
 IR Inten    --    15.7453                 1.8789                 1.5331

 - Thermochemistry -
 -------------------
 Temperature   298.150 Kelvin.  Pressure   1.00000 Atm.
 Atom     1 has atomic number  6 and mass  12.00000

 Molecular mass:    99.01427 amu.
 Principal axes and moments of inertia in atomic units:
                           1         2         3
     Eigenvalues --   248.82425 721.68187 959.30689
           X            0.99921  -0.03974   0.00001
           Y            0.03974   0.99921   0.00001
           Z           -0.00001  -0.00001   1.00000
 This molecule is an asymmetric top.
 Rotational symmetry number  1.
 Rotational temperatures (Kelvin)      0.34809     0.12002     0.09029
 Rotational constants (GHZ):           7.25308     2.50074     1.88130
 Zero-point vibrational energy     218562.4 (Joules/Mol)
                                   52.23766 (Kcal/Mol)
 Warning -- explicit consideration of   5 degrees of freedom as
           vibrations may cause significant error
 Vibrational temperatures:    185.74   334.37   479.42   701.36   799.22
          (Kelvin)            938.24   961.86  1056.40  1175.28  1185.17
                             1267.25  1366.89  1479.54  1553.34  1688.32
                             1822.18  1956.44  2074.45  2150.97  2167.68
                             2178.11  2281.65  4394.52  4475.14  4516.70
                             4668.75  4714.98

 Zero-point correction=                           0.083246 (Hartree/Particle)
 Thermal correction to Energy=                    0.088802
 Thermal correction to Enthalpy=                  0.089746
 Thermal correction to Gibbs Free Energy=         0.053846
 Sum of electronic and zero-point Energies=           -608.285257
 Sum of electronic and thermal Energies=              -608.279700
 Sum of electronic and thermal Enthalpies=            -608.278756
 Sum of electronic and thermal Free Energies=         -608.314657

                     E (Thermal)             CV                S
                      KCal/Mol        Cal/Mol-Kelvin    Cal/Mol-Kelvin
 Total                   55.724             19.992             75.560
 Electronic               0.000              0.000              0.000
 Translational            0.889              2.981             39.689
 Rotational               0.889              2.981             26.646
 Vibrational             53.947             14.030              9.225
 Vibration     1          0.612              1.924              2.959
 Vibration     2          0.653              1.791              1.860
 Vibration     3          0.715              1.609              1.244
 Vibration     4          0.843              1.278              0.690
 Vibration     5          0.911              1.128              0.533

 Normal termination of Gaussian 09 at Mon Oct  4 21:56:52 2021.
 Gaussian 09:  AM64L-G09RevA.02 11-Jun-2009

 ----------------------------------------------------------------------
 #p TD(NStates=10, Root=1) b3lyp/6-31G* volume pop=NPA density=current
 Geom=AllCheck Guess=Read
 ----------------------------------------------------------------------

 Cc1cscn1_conf_0
 ---------------
 Redundant internal coordinates taken from checkpoint file:
 C4H5NS_6eca_conf_0.chk
 Charge =  0 Multiplicity = 1

                         Standard orientation:
 ---------------------------------------------------------------------
 Center     Atomic      Atomic             Coordinates (Angstroms)
 Number     Number       Type             X           Y           Z
 ---------------------------------------------------------------------
      1          6           0        2.446676   -0.176292    0.000099
      2          6           0        0.952154   -0.039106   -0.000092
      3          6           0        0.047456   -1.065523   -0.000138
      4         16           0       -1.574746   -0.449676    0.000067
      5          6           0       -0.904255    1.165342    0.000042
      6          7           0        0.392544    1.227602   -0.000127
      7          1           0        2.748968   -1.227391   -0.002674
      8          1           0        2.879628    0.306879    0.883622
      9          1           0        2.880176    0.311837   -0.880388
     10          1           0        0.241424   -2.129124   -0.000239
     11          1           0       -1.554257    2.032868    0.000029
 ---------------------------------------------------------------------

 SCF Done:  E(RB3LYP) =  -608.368502746     A.U. after    1 cycles

 Excitation energies and oscillator strengths:

 Excited State   1:      Singlet-A      5.4027 eV  229.48 nm  f=0.0004  <S**2>=0.000
      25 -> 27         0.70549
 This state for optimization and/or second-order correction.
 Total Energy, E(TD-HF/TD-KS) =  -608.169955900
 Copying the excited state density for this state as the 1-particle RhoCI density.

 Excited State   2:      Singlet-A      5.5675 eV  222.69 nm  f=0.0638  <S**2>=0.000
      25 -> 28        -0.12259
      26 -> 27         0.67230
      26 -> 29         0.10176

 Excited State   3:      Singlet-A      5.8314 eV  212.61 nm  f=0.0000  <S**2>=0.000
      26 -> 28         0.70460

 Excited State   4:      Singlet-A      6.4313 eV  192.78 nm  f=0.0423  <S**2>=0.000
      24 -> 27         0.61959
      25 -> 28         0.24713
      26 -> 27         0.13855
      26 -> 29        -0.14485

 Excited State   5:      Singlet-A      6.8129 eV  181.98 nm  f=0.0000  <S**2>=0.000
      24 -> 28         0.70274

 Excited State   6:      Singlet-A      7.0212 eV  176.59 nm  f=0.0111  <S**2>=0.000
      24 -> 27        -0.13972
      24 -> 29         0.11231
      25 -> 28         0.57239
      26 -> 29         0.36257

 Excited State   7:      Singlet-A      7.3876 eV  167.83 nm  f=0.0058  <S**2>=0.000
      25 -> 29         0.70286

 Excited State   8:      Singlet-A      7.6509 eV  162.05 nm  f=0.2931  <S**2>=0.000
      23 -> 28        -0.14709
      24 -> 27         0.21215
      24 -> 29        -0.25082
      25 -> 28        -0.23680
      26 -> 29         0.53681

 Excited State   9:      Singlet-A      7.8638 eV  157.67 nm  f=0.0002  <S**2>=0.000
      23 -> 27         0.40537
      26 -> 30         0.57134

 Excited State  10:      Singlet-A      7.9189 eV  156.57 nm  f=0.0050  <S**2>=0.000
      23 -> 27         0.56860
      26 -> 30        -0.40357

 The electronic state is 1-A.
 Alpha  occ. eigenvalues --  -88.91411 -14.33429 -10.24965 -10.22559 -10.21649
 Alpha  occ. eigenvalues --  -10.18756  -7.97611  -5.93982  -5.93636  -5.93338
 Alpha  occ. eigenvalues --   -0.96058  -0.79589  -0.77297  -0.68188  -0.59596
 Alpha  occ. eigenvalues --   -0.54755  -0.49445  -0.43242  -0.42804  -0.41157
 Alpha  occ. eigenvalues --   -0.38889  -0.38431  -0.35703  -0.28120  -0.27248
 Alpha  occ. eigenvalues --   -0.24046
 Alpha virt. eigenvalues --   -0.02159   0.01996   0.05047   0.09261   0.12792
 Alpha virt. eigenvalues --    0.13200   0.14324   0.17078   0.18492   0.23989
 Alpha virt. eigenvalues --    0.24856   0.26999   0.31909   0.36186   0.37356

 Mulliken atomic charges:
              1
     1  C   -0.512735
     2  C    0.333790
     3  C   -0.444763
     4  S    0.273375
     5  C   -0.225807
     6  N   -0.276447
     7  H    0.165702
     8  H    0.167967
     9  H    0.167925
    10  H    0.168929
    11  H    0.182064
 Sum of Mulliken atomic charges =  -0.00000

 Dipole moment (field-independent basis, Debye):
    X=              1.0855    Y=              0.1909    Z=              0.0002  Tot=              1.1022
 Quadrupole moment (field-independent basis, Debye-Ang):
   XX=            -39.5830   YY=            -38.1167   ZZ=            -45.4840
   XY=             -1.5155   XZ=              0.0001   YZ=              0.0001

 Summary of Natural Population Analysis:

                                       Natural Population
                Natural  -----------------------------------------------
    Atom  No    Charge         Core      Valence    Rydberg      Total
 -----------------------------------------------------------------------
      C    1   -0.69426      1.99936     4.68717    0.00772     6.69426
      C    2    0.08157      1.99889     3.89894    0.02060     5.91843
      C    3   -0.56509      1.99886     4.54993    0.01629     6.56509
      S    4    0.42257      9.99902     5.52328    0.05514    15.57743
      C    5   -0.37581      1.99933     4.34789    0.02858     6.37581
      N    6   -0.12032      1.99880     5.10772    0.01380     7.12032
      H    7    0.24761      0.00000     0.75182    0.00056     0.75239
      H    8    0.24510      0.00000     0.75379    0.00111     0.75490
      H    9    0.24510      0.00000     0.75378    0.00111     0.75490
      H   10    0.26066      0.00000     0.73893    0.00041     0.73934
      H   11    0.25286      0.00000     0.74668    0.00046     0.74714
 =======================================================================
   * Total *    0.00000     19.99427    31.85993    0.14580    52.00000

 Normal termination of Gaussian 09 at Mon Oct  4 22:29:36 2021.
