 Gaussian 09, Revision A.02,

 -----------------------------------
 #p opt b3lyp/6-31G* scf=(xqc,tight)
 -----------------------------------

 ---------------
 Cn1cncc1_conf_0
 ---------------
 Symbolic Z-matrix:
 Charge =  0 Multiplicity = 1

 SCF Done:  E(RB3LYP) =  -265.526106920     A.U. after   14 cycles
 SCF Done:  E(RB3LYP) =  -265.527179722     A.U. after   15 cycles
 SCF Done:  E(RB3LYP) =  -265.527329582     A.U. after   10 cycles
 SCF Done:  E(RB3LYP) =  -265.527340632     A.U. after   10 cycles
 SCF Done:  E(RB3LYP) =  -265.527350544     A.U. after    8 cycles
 Optimization completed.
    -- Stationary point found.
 Normal termination of Gaussian 09 at Sun Oct  3 21:17:22 2021.

 ----------------------------------------------------------------------
 #p freq b3lyp/6-31G* volume NMR pop=NPA density=current Geom=AllCheck
 Guess=Read
 ----------------------------------------------------------------------

 Cn1cncc1_conf_0
 ---------------
 Redundant internal coordinates taken from checkpoint file:
 C4H6N2_323d_conf_0.chk
 Charge =  0 Multiplicity = 1

 SCF Done:  E(RB3LYP) =  -265.527350544     A.U. after    1 cycles

  1  C    Isotropic =   157.3765   Anisotropy =    50.1643

  2  N    Isotropic =    98.2243   Anisotropy =   125.4880

  3  C    Isotropic =    60.9955   Anisotropy =    74.2518

  4  N    Isotropic =    -7.5837   Anisotropy =   380.4267

  5  C    Isotropic =    64.9652   Anisotropy =   105.6444

  6  C    Isotropic =    78.6575   Anisotropy =    96.0896

  7  H    Isotropic =    28.8572   Anisotropy =     7.0576

  8  H    Isotropic =    28.7195   Anisotropy =     9.0309

  9  H    Isotropic =    28.7173   Anisotropy =     8.9538

 10  H    Isotropic =    25.3877   Anisotropy =     4.1303

 11  H    Isotropic =    25.3469   Anisotropy =     3.0615

 12  H    Isotropic =    25.6923   Anisotropy =     3.4513

  Exact polarizability:  63.343  -0.875  55.522   0.001   0.000  27.227
 Approx polarizability:  96.209   2.784  88.697  -0.036  -0.002  39.469

                     1                      2                      3
                     A                      A                      A
 Frequencies --    77.2213               207.9881               348.4862
 Red. masses --     1.1335                 2.8495                 2.6881
 Frc consts  --     0.0040                 0.0726                 0.1923
 IR Inten    --     0.1086                 1.0320                 0.5731

                     4                      5                      6
                     A                      A                      A
 Frequencies --   622.4988               674.6281               680.4223
 Red. masses --     3.6332                 4.1278                 4.3660
 Frc consts  --     0.8295                 1.1069                 1.1910
 IR Inten    --     3.3354                13.9012                 4.4205

                     7                      8                      9
                     A                      A                      A
 Frequencies --   714.9665               800.8135               850.3103
 Red. masses --     1.2219                 1.3221                 1.3132
 Frc consts  --     0.3680                 0.4995                 0.5594
 IR Inten    --    17.1269                25.1712                 2.7021

                    10                     11                     12
                     A                      A                      A
 Frequencies --   915.2382              1045.9824              1084.3955
 Red. masses --     6.4561                 3.6907                 1.5514
 Frc consts  --     3.1863                 2.3791                 1.0749
 IR Inten    --    10.9853                 9.4270                11.5512

                    13                     14                     15
                     A                      A                      A
 Frequencies --  1105.0662              1151.8655              1158.9589
 Red. masses --     1.3462                 1.9303                 1.3032
 Frc consts  --     0.9686                 1.5090                 1.0313
 IR Inten    --    10.9986                15.4051                 0.1170

                    16                     17                     18
                     A                      A                      A
 Frequencies --  1276.4555              1317.2154              1394.2582
 Red. masses --     1.6364                 2.0334                 4.8876
 Frc consts  --     1.5709                 2.0787                 5.5980
 IR Inten    --    21.0212                26.8099                 3.1946

                    19                     20                     21
                     A                      A                      A
 Frequencies --  1410.2711              1473.8085              1511.9709
 Red. masses --     5.5517                 1.3010                 1.0418
 Frc consts  --     6.5055                 1.6650                 1.4033
 IR Inten    --     1.2703                21.9458                 7.2195

                    22                     23                     24
                     A                      A                      A
 Frequencies --  1537.5149              1557.4518              1561.8590
 Red. masses --     1.3427                 2.9346                 2.2876
 Frc consts  --     1.8701                 4.1940                 3.2879
 IR Inten    --     6.4402                55.8111                 5.8556

                    25                     26                     27
                     A                      A                      A
 Frequencies --  3059.4678              3120.6801              3154.2223
 Red. masses --     1.0336                 1.1062                 1.1028
 Frc consts  --     5.7005                 6.3470                 6.4643
 IR Inten    --    47.2796                21.2303                10.2518

                    28                     29                     30
                     A                      A                      A
 Frequencies --  3256.8448              3258.5805              3286.4156
 Red. masses --     1.0934                 1.0931                 1.1039
 Frc consts  --     6.8335                 6.8388                 7.0248
 IR Inten    --     9.7125                 1.7020                 3.9403

 - Thermochemistry -
 -------------------
 Temperature   298.150 Kelvin.  Pressure   1.00000 Atm.
 Atom     1 has atomic number  6 and mass  12.00000

 Molecular mass:    82.05310 amu.
 Principal axes and moments of inertia in atomic units:
                           1         2         3
     Eigenvalues --   196.91560 501.52244 687.00002
           X            0.99953  -0.03063   0.00005
           Y            0.03063   0.99953   0.00003
           Z           -0.00006  -0.00003   1.00000
 This molecule is an asymmetric top.
 Rotational symmetry number  1.
 Rotational temperatures (Kelvin)      0.43985     0.17270     0.12608
 Rotational constants (GHZ):           9.16505     3.59853     2.62699
 Zero-point vibrational energy     260880.8 (Joules/Mol)
                                   62.35200 (Kcal/Mol)
 Warning -- explicit consideration of   3 degrees of freedom as
           vibrations may cause significant error
 Vibrational temperatures:    111.10   299.25   501.39   895.64   970.64
          (Kelvin)            978.97  1028.68  1152.19  1223.41  1316.82
                             1504.93  1560.20  1589.94  1657.28  1667.48
                             1836.53  1895.18  2006.02  2029.06  2120.48
                             2175.39  2212.14  2240.82  2247.16  4401.89
                             4489.96  4538.22  4685.87  4688.36  4728.41

 Zero-point correction=                           0.099364 (Hartree/Particle)
 Thermal correction to Energy=                    0.104762
 Thermal correction to Enthalpy=                  0.105706
 Thermal correction to Gibbs Free Energy=         0.070371
 Sum of electronic and zero-point Energies=           -265.427986
 Sum of electronic and thermal Energies=              -265.422589
 Sum of electronic and thermal Enthalpies=            -265.421645
 Sum of electronic and thermal Free Energies=         -265.456980

                     E (Thermal)             CV                S
                      KCal/Mol        Cal/Mol-Kelvin    Cal/Mol-Kelvin
 Total                   65.739             18.786             74.369
 Electronic               0.000              0.000              0.000
 Translational            0.889              2.981             39.128
 Rotational               0.889              2.981             25.720
 Vibrational             63.961             12.825              9.520
 Vibration     1          0.599              1.964              3.960
 Vibration     2          0.641              1.828              2.061
 Vibration     3          0.726              1.578              1.173

 Normal termination of Gaussian 09 at Sun Oct  3 21:33:29 2021.
 Gaussian 09:  AM64L-G09RevA.02 11-Jun-2009

 ----------------------------------------------------------------------
 #p TD(NStates=10, Root=1) b3lyp/6-31G* volume pop=NPA density=current
 Geom=AllCheck Guess=Read
 ----------------------------------------------------------------------

 Cn1cncc1_conf_0
 ---------------
 Redundant internal coordinates taken from checkpoint file:
 C4H6N2_323d_conf_0.chk
 Charge =  0 Multiplicity = 1

                         Standard orientation:
 ---------------------------------------------------------------------
 Center     Atomic      Atomic             Coordinates (Angstroms)
 Number     Number       Type             X           Y           Z
 ---------------------------------------------------------------------
      1          6           0        2.063038    0.028917    0.001716
      2          7           0        0.611522    0.017027   -0.002537
      3          6           0       -0.200387   -1.084128   -0.000787
      4          7           0       -1.477771   -0.769260    0.000796
      5          6           0       -1.501435    0.607214    0.001316
      6          6           0       -0.226066    1.115713   -0.001063
      7          1           0        2.424951   -1.001623   -0.020767
      8          1           0        2.446770    0.515460    0.904715
      9          1           0        2.449840    0.554732   -0.877453
     10          1           0        0.206073   -2.087725   -0.001505
     11          1           0       -2.435125    1.153970    0.002329
     12          1           0        0.160335    2.124532   -0.002227
 ---------------------------------------------------------------------

 SCF Done:  E(RB3LYP) =  -265.527350544     A.U. after    1 cycles

 Excitation energies and oscillator strengths:

 Excited State   1:      Singlet-A      6.5311 eV  189.84 nm  f=0.0015  <S**2>=0.000
      21 -> 23         0.70382
 This state for optimization and/or second-order correction.
 Total Energy, E(TD-HF/TD-KS) =  -265.287336309
 Copying the excited state density for this state as the 1-particle RhoCI density.

 Excited State   2:      Singlet-A      6.5968 eV  187.95 nm  f=0.1161  <S**2>=0.000
      20 -> 23        -0.10098
      20 -> 24         0.12652
      22 -> 23         0.66664
      22 -> 24         0.15085

 Excited State   3:      Singlet-A      7.0836 eV  175.03 nm  f=0.0119  <S**2>=0.000
      20 -> 23         0.52032
      22 -> 23         0.17687
      22 -> 24        -0.43762

 Excited State   4:      Singlet-A      7.5420 eV  164.39 nm  f=0.0013  <S**2>=0.000
      22 -> 25         0.69942

 Excited State   5:      Singlet-A      7.6288 eV  162.52 nm  f=0.0113  <S**2>=0.000
      21 -> 24         0.70253

 Excited State   6:      Singlet-A      8.1898 eV  151.39 nm  f=0.3666  <S**2>=0.000
      20 -> 23         0.42402
      20 -> 24        -0.16394
      21 -> 25        -0.11594
      22 -> 24         0.49787

 Excited State   7:      Singlet-A      8.2968 eV  149.44 nm  f=0.0029  <S**2>=0.000
      22 -> 26         0.62051
      22 -> 27         0.32189

 Excited State   8:      Singlet-A      8.4420 eV  146.87 nm  f=0.0021  <S**2>=0.000
      22 -> 26        -0.32381
      22 -> 27         0.61777

 Excited State   9:      Singlet-A      8.6069 eV  144.05 nm  f=0.0064  <S**2>=0.000
      20 -> 25         0.69744

 Excited State  10:      Singlet-A      8.6318 eV  143.64 nm  f=0.0276  <S**2>=0.000
      20 -> 24        -0.41619
      21 -> 25         0.54258
      21 -> 26        -0.10273

 The electronic state is 1-A.
 Alpha  occ. eigenvalues --  -14.39162 -14.30246 -10.24141 -10.22982 -10.20567
 Alpha  occ. eigenvalues --  -10.19002  -1.00999  -0.87868  -0.74611  -0.71352
 Alpha  occ. eigenvalues --   -0.59005  -0.57150  -0.53112  -0.47448  -0.45132
 Alpha  occ. eigenvalues --   -0.42510  -0.41219  -0.39441  -0.39296  -0.26286
 Alpha  occ. eigenvalues --   -0.25859  -0.22121
 Alpha virt. eigenvalues --    0.03232   0.07670   0.08965   0.12084   0.13175
 Alpha virt. eigenvalues --    0.15647   0.15856   0.16026   0.18008   0.23564
 Alpha virt. eigenvalues --    0.26580   0.33682   0.35263   0.44815   0.47461

 Mulliken atomic charges:
              1
     1  C   -0.300603
     2  N   -0.371691
     3  C    0.151970
     4  N   -0.300111
     5  C   -0.030019
     6  C   -0.051274
     7  H    0.162151
     8  H    0.148891
     9  H    0.150210
    10  H    0.144502
    11  H    0.152037
    12  H    0.143938
 Sum of Mulliken atomic charges =  -0.00000

 Dipole moment (field-independent basis, Debye):
    X=              0.8811    Y=             -0.2177    Z=             -0.0094  Tot=              0.9076
 Quadrupole moment (field-independent basis, Debye-Ang):
   XX=            -30.9179   YY=            -32.5106   ZZ=            -38.8392
   XY=             -0.8567   XZ=             -0.0313   YZ=             -0.0001

 Summary of Natural Population Analysis:

                                       Natural Population
                Natural  -----------------------------------------------
    Atom  No    Charge         Core      Valence    Rydberg      Total
 -----------------------------------------------------------------------
      C    1   -0.44897      1.99947     4.43802    0.01147     6.44897
      N    2   -0.41447      1.99933     5.40235    0.01279     7.41447
      C    3   -0.02480      1.99929     3.99133    0.03418     6.02480
      N    4   -0.07778      1.99876     5.06764    0.01138     7.07778
      C    5   -0.15782      1.99908     4.13857    0.02018     6.15782
      C    6   -0.23445      1.99912     4.20871    0.02662     6.23445
      H    7    0.23398      0.00000     0.76535    0.00067     0.76602
      H    8    0.20926      0.00000     0.78509    0.00565     0.79074
      H    9    0.21115      0.00000     0.78351    0.00534     0.78885
      H   10    0.22065      0.00000     0.77891    0.00044     0.77935
      H   11    0.24263      0.00000     0.75707    0.00029     0.75737
      H   12    0.24036      0.00000     0.75946    0.00018     0.75964
 =======================================================================
   * Total *   -0.00027     11.99505    31.87603    0.12919    44.00027

 Normal termination of Gaussian 09 at Sun Oct  3 22:24:17 2021.
