 Gaussian 09, Revision A.02,

 -----------------------------------
 #p opt b3lyp/6-31G* scf=(xqc,tight)
 -----------------------------------

 -----------------
 CC(N=C=O)C_conf_0
 -----------------
 Symbolic Z-matrix:
 Charge =  0 Multiplicity = 1

 SCF Done:  E(RB3LYP) =  -286.611846811     A.U. after   14 cycles
 SCF Done:  E(RB3LYP) =  -286.619986942     A.U. after   15 cycles
 SCF Done:  E(RB3LYP) =  -286.619760207     A.U. after   13 cycles
 SCF Done:  E(RB3LYP) =  -286.621518355     A.U. after   13 cycles
 SCF Done:  E(RB3LYP) =  -286.622170608     A.U. after   12 cycles
 SCF Done:  E(RB3LYP) =  -286.622730427     A.U. after   12 cycles
 SCF Done:  E(RB3LYP) =  -286.622792321     A.U. after   12 cycles
 SCF Done:  E(RB3LYP) =  -286.622799070     A.U. after    9 cycles
 SCF Done:  E(RB3LYP) =  -286.622799661     A.U. after    8 cycles
 SCF Done:  E(RB3LYP) =  -286.622799926     A.U. after    8 cycles
 SCF Done:  E(RB3LYP) =  -286.622800547     A.U. after    9 cycles
 SCF Done:  E(RB3LYP) =  -286.622800953     A.U. after    9 cycles
 SCF Done:  E(RB3LYP) =  -286.622800982     A.U. after   14 cycles
 Optimization completed.
    -- Stationary point found.
 Normal termination of Gaussian 09 at Mon Oct  4 03:48:52 2021.

 ----------------------------------------------------------------------
 #p freq b3lyp/6-31G* volume NMR pop=NPA density=current Geom=AllCheck
 Guess=Read
 ----------------------------------------------------------------------

 CC(N=C=O)C_conf_0
 -----------------
 Redundant internal coordinates taken from checkpoint file:
 C4H7NO_0861_conf_0.chk
 Charge =  0 Multiplicity = 1

 SCF Done:  E(RB3LYP) =  -286.622800982     A.U. after    1 cycles

  1  C    Isotropic =   163.5084   Anisotropy =    36.3305

  2  C    Isotropic =   141.9363   Anisotropy =    38.8147

  3  N    Isotropic =   210.1598   Anisotropy =   182.2504

  4  C    Isotropic =    76.7603   Anisotropy =   288.0975

  5  O    Isotropic =   197.5368   Anisotropy =   252.5936

  6  C    Isotropic =   163.5085   Anisotropy =    36.3301

  7  H    Isotropic =    30.5538   Anisotropy =     7.9272

  8  H    Isotropic =    31.0247   Anisotropy =     5.3648

  9  H    Isotropic =    31.0502   Anisotropy =     8.8449

 10  H    Isotropic =    28.9806   Anisotropy =     7.1726

 11  H    Isotropic =    31.0247   Anisotropy =     5.3650

 12  H    Isotropic =    30.5538   Anisotropy =     7.9273

 13  H    Isotropic =    31.0503   Anisotropy =     8.8451

  Exact polarizability:  65.549  -0.001  41.947   6.350  -0.000  40.705
 Approx polarizability: 100.945  -0.003  52.114  21.395  -0.002  64.527

                     1                      2                      3
                     A                      A                      A
 Frequencies --    35.4179               117.0354               250.6122
 Red. masses --     4.5294                 4.8210                 1.0246
 Frc consts  --     0.0033                 0.0389                 0.0379
 IR Inten    --     0.3922                 4.1313                 0.0033

                     4                      5                      6
                     A                      A                      A
 Frequencies --   284.4181               355.5858               408.6529
 Red. masses --     1.0692                 2.3411                 3.5618
 Frc consts  --     0.0510                 0.1744                 0.3504
 IR Inten    --     0.4188                 0.3534                 4.7846

                     7                      8                      9
                     A                      A                      A
 Frequencies --   479.5238               571.7892               629.6618
 Red. masses --     2.8014                12.4779                 6.6989
 Frc consts  --     0.3795                 2.4036                 1.5648
 IR Inten    --     2.8124                24.8572                25.8260

                    10                     11                     12
                     A                      A                      A
 Frequencies --   761.4536               906.1478               945.5193
 Red. masses --     3.7661                 2.6681                 1.2965
 Frc consts  --     1.2866                 1.2908                 0.6829
 IR Inten    --    18.7980                10.6308                 0.5308

                    13                     14                     15
                     A                      A                      A
 Frequencies --   960.9353              1139.3657              1154.7514
 Red. masses --     1.3450                 1.6178                 2.1885
 Frc consts  --     0.7318                 1.2374                 1.7194
 IR Inten    --     0.1911                50.9233                 8.6280

                    16                     17                     18
                     A                      A                      A
 Frequencies --  1201.2906              1377.9741              1392.3890
 Red. masses --     1.8639                 1.3364                 1.3943
 Frc consts  --     1.5848                 1.4951                 1.5927
 IR Inten    --     4.4018                 5.4771                35.8862

                    19                     20                     21
                     A                      A                      A
 Frequencies --  1426.5101              1445.3728              1490.2115
 Red. masses --     1.2544                 1.2499                 4.5437
 Frc consts  --     1.5040                 1.5385                 5.9451
 IR Inten    --     6.1848                 6.2809                 3.6442

                    22                     23                     24
                     A                      A                      A
 Frequencies --  1514.0924              1516.6343              1525.6410
 Red. masses --     1.0472                 1.0463                 1.0481
 Frc consts  --     1.4145                 1.4180                 1.4373
 IR Inten    --     1.8318                 0.0648                 7.8146

                    25                     26                     27
                     A                      A                      A
 Frequencies --  1538.9434              2372.3705              3050.8231
 Red. masses --     1.0677                12.5698                 1.0353
 Frc consts  --     1.4898                41.6815                 5.6774
 IR Inten    --     3.2290               973.9284                15.0814

                    28                     29                     30
                     A                      A                      A
 Frequencies --  3054.7563              3068.4846              3118.9182
 Red. masses --     1.0381                 1.0834                 1.1031
 Frc consts  --     5.7075                 6.0101                 6.3225
 IR Inten    --    11.9687                16.0483                 0.5667

                    31                     32                     33
                     A                      A                      A
 Frequencies --  3127.9112              3135.8837              3137.3743
 Red. masses --     1.1020                 1.1028                 1.1028
 Frc consts  --     6.3522                 6.3898                 6.3957
 IR Inten    --    65.2039                18.4165                25.4204

 - Thermochemistry -
 -------------------
 Temperature   298.150 Kelvin.  Pressure   1.00000 Atm.
 Atom     1 has atomic number  6 and mass  12.00000

 Molecular mass:    85.05276 amu.
 Principal axes and moments of inertia in atomic units:
                           1         2         3
     Eigenvalues --   268.87952 824.53457 950.94676
           X            0.99994  -0.00000  -0.01105
           Y            0.00000   1.00000   0.00001
           Z            0.01105  -0.00001   0.99994
 This molecule is an asymmetric top.
 Rotational symmetry number  1.
 Rotational temperatures (Kelvin)      0.32213     0.10505     0.09108
 Rotational constants (GHZ):           6.71208     2.18880     1.89784
 Zero-point vibrational energy     284091.9 (Joules/Mol)
                                   67.89959 (Kcal/Mol)
 Warning -- explicit consideration of   8 degrees of freedom as
           vibrations may cause significant error
 Vibrational temperatures:     50.96   168.39   360.57   409.21   511.61
          (Kelvin)            587.96   689.93   822.68   905.94  1095.56
                             1303.74  1360.39  1382.57  1639.29  1661.43
                             1728.39  1982.59  2003.33  2052.43  2079.57
                             2144.08  2178.44  2182.10  2195.05  2214.19
                             3413.31  4389.45  4395.11  4414.86  4487.42
                             4500.36  4511.83  4513.98

 Zero-point correction=                           0.108205 (Hartree/Particle)
 Thermal correction to Energy=                    0.115089
 Thermal correction to Enthalpy=                  0.116033
 Thermal correction to Gibbs Free Energy=         0.076824
 Sum of electronic and zero-point Energies=           -286.514596
 Sum of electronic and thermal Energies=              -286.507712
 Sum of electronic and thermal Enthalpies=            -286.506768
 Sum of electronic and thermal Free Energies=         -286.545977

                     E (Thermal)             CV                S
                      KCal/Mol        Cal/Mol-Kelvin    Cal/Mol-Kelvin
 Total                   72.219             23.242             82.522
 Electronic               0.000              0.000              0.000
 Translational            0.889              2.981             39.235
 Rotational               0.889              2.981             26.847
 Vibrational             70.442             17.281             16.440
 Vibration     1          0.594              1.982              5.500
 Vibration     2          0.608              1.935              3.149
 Vibration     3          0.663              1.762              1.726
 Vibration     4          0.683              1.703              1.507
 Vibration     5          0.731              1.564              1.141
 Vibration     6          0.773              1.451              0.931
 Vibration     7          0.836              1.295              0.711
 Vibration     8          0.928              1.092              0.501

 Optimization completed.
    -- Stationary point found.
 Normal termination of Gaussian 09 at Mon Oct  4 04:06:53 2021.
 Gaussian 09:  AM64L-G09RevA.02 11-Jun-2009

 ----------------------------------------------------------------------
 #p TD(NStates=10, Root=1) b3lyp/6-31G* volume pop=NPA density=current
 Geom=AllCheck Guess=Read
 ----------------------------------------------------------------------

 CC(N=C=O)C_conf_0
 -----------------
 Redundant internal coordinates taken from checkpoint file:
 C4H7NO_0861_conf_0.chk
 Charge =  0 Multiplicity = 1

                         Standard orientation:
 ---------------------------------------------------------------------
 Center     Atomic      Atomic             Coordinates (Angstroms)
 Number     Number       Type             X           Y           Z
 ---------------------------------------------------------------------
      1          6           0        1.383319    1.274950   -0.307658
      2          6           0        0.972853    0.000004    0.438446
      3          7           0       -0.458005   -0.000168    0.714597
      4          6           0       -1.496650   -0.000094    0.098840
      5          8           0       -2.581090    0.000010   -0.371480
      6          6           0        1.383592   -1.274782   -0.307774
      7          1           0        1.069950    2.166868    0.243383
      8          1           0        0.924843    1.304473   -1.303124
      9          1           0        2.471678    1.307782   -0.430228
     10          1           0        1.462107    0.000003    1.418890
     11          1           0        0.925211   -1.304268   -1.303284
     12          1           0        1.070317   -2.166813    0.243139
     13          1           0        2.471968   -1.307417   -0.430239
 ---------------------------------------------------------------------

 SCF Done:  E(RB3LYP) =  -286.622800982     A.U. after    1 cycles

 Excitation energies and oscillator strengths:

 Excited State   1:      Singlet-A      6.3703 eV  194.63 nm  f=0.0001  <S**2>=0.000
      23 -> 24         0.69903
 This state for optimization and/or second-order correction.
 Total Energy, E(TD-HF/TD-KS) =  -286.388696742
 Copying the excited state density for this state as the 1-particle RhoCI density.

 Excited State   2:      Singlet-A      7.2309 eV  171.46 nm  f=0.0103  <S**2>=0.000
      22 -> 24         0.56311
      23 -> 25        -0.42263

 Excited State   3:      Singlet-A      7.9717 eV  155.53 nm  f=0.0003  <S**2>=0.000
      22 -> 25         0.69855

 Excited State   4:      Singlet-A      8.7135 eV  142.29 nm  f=0.0073  <S**2>=0.000
      23 -> 26         0.69833

 Excited State   5:      Singlet-A      9.0485 eV  137.02 nm  f=0.0020  <S**2>=0.000
      21 -> 24        -0.12519
      22 -> 24         0.15544
      22 -> 26         0.64760
      23 -> 25         0.17559

 Excited State   6:      Singlet-A      9.4553 eV  131.13 nm  f=0.1324  <S**2>=0.000
      21 -> 24         0.58337
      22 -> 24        -0.17904
      22 -> 26         0.20847
      22 -> 27         0.13109
      23 -> 25        -0.21207

 Excited State   7:      Singlet-A      9.5029 eV  130.47 nm  f=0.0040  <S**2>=0.000
      20 -> 24        -0.29909
      23 -> 27         0.58835
      23 -> 28        -0.15096
      23 -> 30        -0.17137

 Excited State   8:      Singlet-A      9.5518 eV  129.80 nm  f=0.0000  <S**2>=0.000
      20 -> 24         0.62119
      23 -> 27         0.30707

 Excited State   9:      Singlet-A      9.8798 eV  125.49 nm  f=0.0466  <S**2>=0.000
      21 -> 24        -0.26429
      22 -> 24        -0.10692
      22 -> 27         0.54597
      22 -> 28        -0.22587
      22 -> 30        -0.18272
      23 -> 25        -0.13887

 Excited State  10:      Singlet-A     10.0340 eV  123.56 nm  f=0.0002  <S**2>=0.000
      23 -> 27         0.16696
      23 -> 28         0.66792
      23 -> 30         0.10489

 The electronic state is 1-A.
 Alpha  occ. eigenvalues --  -19.18445 -14.35259 -10.31584 -10.25340 -10.19198
 Alpha  occ. eigenvalues --  -10.19198  -1.08637  -0.94731  -0.80013  -0.70309
 Alpha  occ. eigenvalues --   -0.64655  -0.51969  -0.48884  -0.47515  -0.45822
 Alpha  occ. eigenvalues --   -0.43255  -0.41776  -0.40633  -0.40094  -0.36600
 Alpha  occ. eigenvalues --   -0.36560  -0.28644  -0.27283
 Alpha virt. eigenvalues --    0.02481   0.06845   0.08365   0.12162   0.13416
 Alpha virt. eigenvalues --    0.14283   0.15345   0.16249   0.17823   0.18159
 Alpha virt. eigenvalues --    0.21195   0.26083   0.26452   0.41038   0.47708

 Mulliken atomic charges:
              1
     1  C   -0.457996
     2  C    0.038679
     3  N   -0.280123
     4  C    0.370339
     5  O   -0.336145
     6  C   -0.457993
     7  H    0.161529
     8  H    0.160251
     9  H    0.161864
    10  H    0.155935
    11  H    0.160254
    12  H    0.161534
    13  H    0.161872
 Sum of Mulliken atomic charges =  -0.00000

 Dipole moment (field-independent basis, Debye):
    X=              3.2101    Y=             -0.0000    Z=              0.0207  Tot=              3.2101
 Quadrupole moment (field-independent basis, Debye-Ang):
   XX=            -39.8640   YY=            -34.0489   ZZ=            -37.5914
   XY=             -0.0001   XZ=             -0.8297   YZ=              0.0008

 Summary of Natural Population Analysis:

                                       Natural Population
                Natural  -----------------------------------------------
    Atom  No    Charge         Core      Valence    Rydberg      Total
 -----------------------------------------------------------------------
      C    1   -0.68403      1.99937     4.67413    0.01053     6.68403
      C    2   -0.09452      1.99918     4.07774    0.01760     6.09452
      N    3   -0.30378      1.99929     5.27035    0.03414     7.30378
      C    4    0.46086      1.99938     3.48336    0.05640     5.53914
      O    5   -0.37941      1.99982     6.36265    0.01694     8.37941
      C    6   -0.68402      1.99937     4.67412    0.01053     6.68402
      H    7    0.23938      0.00000     0.75800    0.00262     0.76062
      H    8    0.23375      0.00000     0.76182    0.00444     0.76625
      H    9    0.24549      0.00000     0.75381    0.00069     0.75451
      H   10    0.24765      0.00000     0.74937    0.00298     0.75235
      H   11    0.23375      0.00000     0.76181    0.00443     0.76625
      H   12    0.23938      0.00000     0.75800    0.00262     0.76062
      H   13    0.24550      0.00000     0.75381    0.00069     0.75450
 =======================================================================
   * Total *   -0.00000     11.99642    33.83897    0.16461    46.00000

 Normal termination of Gaussian 09 at Mon Oct  4 05:26:20 2021.
