 Gaussian 09, Revision A.02,

 -----------------------------------
 #p opt b3lyp/6-31G* scf=(xqc,tight)
 -----------------------------------

 --------------
 C1CCCN1_conf_0
 --------------
 Symbolic Z-matrix:
 Charge =  0 Multiplicity = 1

 SCF Done:  E(RB3LYP) =  -212.578700962     A.U. after   12 cycles
 SCF Done:  E(RB3LYP) =  -212.580812683     A.U. after   12 cycles
 SCF Done:  E(RB3LYP) =  -212.580903372     A.U. after   10 cycles
 SCF Done:  E(RB3LYP) =  -212.580938716     A.U. after    9 cycles
 SCF Done:  E(RB3LYP) =  -212.580952953     A.U. after    9 cycles
 SCF Done:  E(RB3LYP) =  -212.580970301     A.U. after    9 cycles
 SCF Done:  E(RB3LYP) =  -212.581021364     A.U. after   10 cycles
 SCF Done:  E(RB3LYP) =  -212.581204823     A.U. after   12 cycles
 SCF Done:  E(RB3LYP) =  -212.581263610     A.U. after   11 cycles
 SCF Done:  E(RB3LYP) =  -212.581323536     A.U. after   11 cycles
 SCF Done:  E(RB3LYP) =  -212.581644535     A.U. after   10 cycles
 SCF Done:  E(RB3LYP) =  -212.581702046     A.U. after   11 cycles
 SCF Done:  E(RB3LYP) =  -212.581704884     A.U. after   10 cycles
 SCF Done:  E(RB3LYP) =  -212.581726094     A.U. after   10 cycles
 SCF Done:  E(RB3LYP) =  -212.581728786     A.U. after    9 cycles
 SCF Done:  E(RB3LYP) =  -212.581728814     A.U. after    7 cycles
 SCF Done:  E(RB3LYP) =  -212.581728966     A.U. after    7 cycles
 SCF Done:  E(RB3LYP) =  -212.581728983     A.U. after    7 cycles
 Optimization completed.
    -- Stationary point found.
 Normal termination of Gaussian 09 at Mon Oct  4 10:25:09 2021.

 ----------------------------------------------------------------------
 #p freq b3lyp/6-31G* volume NMR pop=NPA density=current Geom=AllCheck
 Guess=Read
 ----------------------------------------------------------------------

 C1CCCN1_conf_0
 --------------
 Redundant internal coordinates taken from checkpoint file:
 C4H9N_c5a3_conf_0.chk
 Charge =  0 Multiplicity = 1

 SCF Done:  E(RB3LYP) =  -212.581728983     A.U. after    1 cycles

  1  C    Isotropic =   141.8713   Anisotropy =    46.8214

  2  C    Isotropic =   164.3314   Anisotropy =    20.5800

  3  C    Isotropic =   164.3294   Anisotropy =    20.5797

  4  C    Isotropic =   141.8703   Anisotropy =    46.8191

  5  N    Isotropic =   204.8242   Anisotropy =    87.6167

  6  H    Isotropic =    29.1899   Anisotropy =     8.6788

  7  H    Isotropic =    29.5737   Anisotropy =     9.3808

  8  H    Isotropic =    30.7094   Anisotropy =     9.2715

  9  H    Isotropic =    30.4712   Anisotropy =    10.1141

 10  H    Isotropic =    30.7093   Anisotropy =     9.2714

 11  H    Isotropic =    30.4712   Anisotropy =    10.1143

 12  H    Isotropic =    29.5738   Anisotropy =     9.3808

 13  H    Isotropic =    29.1900   Anisotropy =     8.6790

 14  H    Isotropic =    31.8091   Anisotropy =    15.3891

  Exact polarizability:  50.898  -0.000  47.737   0.000  -0.192  42.598
 Approx polarizability:  65.157  -0.000  61.666   0.000   1.124  61.836

                     1                      2                      3
                     A                      A                      A
 Frequencies --    78.8298               294.9498               582.4676
 Red. masses --     1.5902                 1.8499                 2.0144
 Frc consts  --     0.0058                 0.0948                 0.4027
 IR Inten    --     0.1574                 4.1260                47.1671

                     4                      5                      6
                     A                      A                      A
 Frequencies --   638.6703               772.0104               878.6177
 Red. masses --     2.8249                 1.2194                 1.4925
 Frc consts  --     0.6789                 0.4282                 0.6788
 IR Inten    --     0.7360                26.3859                 3.3339

                     7                      8                      9
                     A                      A                      A
 Frequencies --   883.9526               905.4989               936.1397
 Red. masses --     2.0842                 3.2138                 2.2594
 Frc consts  --     0.9595                 1.5525                 1.1666
 IR Inten    --    60.3328                 4.6900                 0.0542

                    10                     11                     12
                     A                      A                      A
 Frequencies --   949.5904              1015.5435              1075.6610
 Red. masses --     2.1817                 1.4175                 1.7813
 Frc consts  --     1.1591                 0.8613                 1.2144
 IR Inten    --     4.2748                 5.1223                 0.9833

                    13                     14                     15
                     A                      A                      A
 Frequencies --  1115.8349              1144.5138              1212.2206
 Red. masses --     2.0348                 2.0760                 1.1990
 Frc consts  --     1.4927                 1.6022                 1.0381
 IR Inten    --     4.3903                11.4276                 0.2104

                    16                     17                     18
                     A                      A                      A
 Frequencies --  1240.1003              1257.5432              1260.5507
 Red. masses --     1.4017                 1.3380                 1.1764
 Frc consts  --     1.2701                 1.2466                 1.1014
 IR Inten    --     6.7192                 1.2632                 7.3445

                    19                     20                     21
                     A                      A                      A
 Frequencies --  1321.7474              1333.1992              1343.1552
 Red. masses --     1.2696                 1.2321                 1.3051
 Frc consts  --     1.3068                 1.2903                 1.3873
 IR Inten    --    18.4662                 0.8811                 6.1562

                    22                     23                     24
                     A                      A                      A
 Frequencies --  1417.2080              1454.9126              1516.7815
 Red. masses --     1.4402                 1.3763                 1.0809
 Frc consts  --     1.7043                 1.7164                 1.4651
 IR Inten    --     4.1973                 3.9658                 0.4655

                    25                     26                     27
                     A                      A                      A
 Frequencies --  1535.0277              1541.5103              1560.6413
 Red. masses --     1.0934                 1.0915                 1.1068
 Frc consts  --     1.5179                 1.5281                 1.5883
 IR Inten    --     2.6380                 2.9817                 0.7605

                    28                     29                     30
                     A                      A                      A
 Frequencies --  2931.2659              2937.0686              3071.0834
 Red. masses --     1.0747                 1.0743                 1.0624
 Frc consts  --     5.4405                 5.4603                 5.9035
 IR Inten    --    46.7372               150.8668                 7.3563

                    31                     32                     33
                     A                      A                      A
 Frequencies --  3078.1790              3083.7007              3090.6801
 Red. masses --     1.0720                 1.0852                 1.0778
 Frc consts  --     5.9847                 6.0800                 6.0660
 IR Inten    --    42.8084                93.1163                14.0706

                    34                     35                     36
                     A                      A                      A
 Frequencies --  3107.5626              3128.3061              3502.5150
 Red. masses --     1.1075                 1.1069                 1.0748
 Frc consts  --     6.3012                 6.3825                 7.7683
 IR Inten    --     0.9198                66.8064                 2.1289

 - Thermochemistry -
 -------------------
 Temperature   298.150 Kelvin.  Pressure   1.00000 Atm.
 Atom     1 has atomic number  6 and mass  12.00000

 Molecular mass:    71.07350 amu.
 Principal axes and moments of inertia in atomic units:
                           1         2         3
     Eigenvalues --   263.73497 266.25015 465.14427
           X            0.00028   1.00000  -0.00000
           Y            0.99975  -0.00028  -0.02235
           Z            0.02235  -0.00000   0.99975
 This molecule is an asymmetric top.
 Rotational symmetry number  1.
 Rotational temperatures (Kelvin)      0.32841     0.32531     0.18621
 Rotational constants (GHZ):           6.84301     6.77837     3.87996
 Zero-point vibrational energy     342115.5 (Joules/Mol)
                                   81.76756 (Kcal/Mol)
 Warning -- explicit consideration of   3 degrees of freedom as
           vibrations may cause significant error
 Vibrational temperatures:    113.42   424.37   838.04   918.90  1110.75
          (Kelvin)           1264.13  1271.81  1302.81  1346.89  1366.25
                             1461.14  1547.63  1605.44  1646.70  1744.11
                             1784.23  1809.32  1813.65  1901.70  1918.17
                             1932.50  2039.04  2093.29  2182.31  2208.56
                             2217.89  2245.41  4217.43  4225.78  4418.60
                             4428.81  4436.75  4446.79  4471.08  4500.93
                             5039.33

 Zero-point correction=                           0.130305 (Hartree/Particle)
 Thermal correction to Energy=                    0.135219
 Thermal correction to Enthalpy=                  0.136163
 Thermal correction to Gibbs Free Energy=         0.102248
 Sum of electronic and zero-point Energies=           -212.451424
 Sum of electronic and thermal Energies=              -212.446510
 Sum of electronic and thermal Enthalpies=            -212.445565
 Sum of electronic and thermal Free Energies=         -212.479481

                     E (Thermal)             CV                S
                      KCal/Mol        Cal/Mol-Kelvin    Cal/Mol-Kelvin
 Total                   84.851             17.498             71.381
 Electronic               0.000              0.000              0.000
 Translational            0.889              2.981             38.700
 Rotational               0.889              2.981             24.994
 Vibrational             83.074             11.536              7.687
 Vibration     1          0.600              1.963              3.920
 Vibration     2          0.689              1.683              1.445
 Vibration     3          0.939              1.069              0.481

 Optimization completed.
    -- Stationary point found.
 Normal termination of Gaussian 09 at Mon Oct  4 10:39:09 2021.
 Gaussian 09:  AM64L-G09RevA.02 11-Jun-2009

 ----------------------------------------------------------------------
 #p TD(NStates=10, Root=1) b3lyp/6-31G* volume pop=NPA density=current
 Geom=AllCheck Guess=Read
 ----------------------------------------------------------------------

 C1CCCN1_conf_0
 --------------
 Redundant internal coordinates taken from checkpoint file:
 C4H9N_c5a3_conf_0.chk
 Charge =  0 Multiplicity = 1

                         Standard orientation:
 ---------------------------------------------------------------------
 Center     Atomic      Atomic             Coordinates (Angstroms)
 Number     Number       Type             X           Y           Z
 ---------------------------------------------------------------------
      1          6           0       -1.161571   -0.448291    0.172001
      2          6           0       -0.778618    1.029312   -0.056792
      3          6           0        0.778955    1.029046   -0.056908
      4          6           0        1.161409   -0.448643    0.172088
      5          7           0       -0.000167   -1.169873   -0.356043
      6          1           0       -2.075184   -0.742652   -0.356332
      7          1           0       -1.325665   -0.627812    1.252184
      8          1           0       -1.199796    1.677783    0.717647
      9          1           0       -1.160896    1.378110   -1.020810
     10          1           0        1.200489    1.677522    0.717332
     11          1           0        1.161202    1.377507   -1.021062
     12          1           0        1.325300   -0.628095    1.252314
     13          1           0        2.074993   -0.743354   -0.356099
     14          1           0       -0.000326   -2.148438   -0.075209
 ---------------------------------------------------------------------

 SCF Done:  E(RB3LYP) =  -212.581728983     A.U. after    1 cycles

 Excitation energies and oscillator strengths:

 Excited State   1:      Singlet-A      6.9411 eV  178.62 nm  f=0.0190  <S**2>=0.000
      20 -> 21         0.69561
      20 -> 23        -0.11825
 This state for optimization and/or second-order correction.
 Total Energy, E(TD-HF/TD-KS) =  -212.326646703
 Copying the excited state density for this state as the 1-particle RhoCI density.

 Excited State   2:      Singlet-A      7.7080 eV  160.85 nm  f=0.0048  <S**2>=0.000
      20 -> 22         0.69983

 Excited State   3:      Singlet-A      8.5236 eV  145.46 nm  f=0.0270  <S**2>=0.000
      20 -> 21         0.11567
      20 -> 23         0.68215

 Excited State   4:      Singlet-A      8.8066 eV  140.79 nm  f=0.0186  <S**2>=0.000
      20 -> 24         0.70118

 Excited State   5:      Singlet-A      9.1980 eV  134.79 nm  f=0.0562  <S**2>=0.000
      20 -> 25         0.69457

 Excited State   6:      Singlet-A      9.3615 eV  132.44 nm  f=0.0174  <S**2>=0.000
      20 -> 27         0.69738

 Excited State   7:      Singlet-A      9.3820 eV  132.15 nm  f=0.0498  <S**2>=0.000
      20 -> 26         0.68291
      20 -> 28         0.12772

 Excited State   8:      Singlet-A      9.7407 eV  127.29 nm  f=0.0000  <S**2>=0.000
      19 -> 21         0.69783

 Excited State   9:      Singlet-A      9.7623 eV  127.00 nm  f=0.0226  <S**2>=0.000
      20 -> 26        -0.15485
      20 -> 28         0.63611
      20 -> 30         0.25160

 Excited State  10:      Singlet-A     10.1966 eV  121.59 nm  f=0.0026  <S**2>=0.000
      20 -> 28        -0.26743
      20 -> 30         0.64541

 The electronic state is 1-A.
 Alpha  occ. eigenvalues --  -14.30843 -10.19903 -10.19902 -10.17639 -10.17622
 Alpha  occ. eigenvalues --   -0.90577  -0.74936  -0.71200  -0.58408  -0.56676
 Alpha  occ. eigenvalues --   -0.50482  -0.47547  -0.42337  -0.39077  -0.36311
 Alpha  occ. eigenvalues --   -0.36304  -0.33608  -0.33284  -0.31461  -0.21466
 Alpha virt. eigenvalues --    0.08240   0.10681   0.13739   0.14520   0.16082
 Alpha virt. eigenvalues --    0.17236   0.18024   0.18571   0.20110   0.20227
 Alpha virt. eigenvalues --    0.24505   0.25418   0.29326   0.32640   0.53161

 Mulliken atomic charges:
              1
     1  C   -0.131713
     2  C   -0.251782
     3  C   -0.251772
     4  C   -0.131723
     5  N   -0.176840
     6  H    0.118050
     7  H    0.122931
     8  H    0.097290
     9  H    0.123461
    10  H    0.097300
    11  H    0.123465
    12  H    0.122948
    13  H    0.118050
    14  H    0.020334
 Sum of Mulliken atomic charges =  -0.00000

 Dipole moment (field-independent basis, Debye):
    X=              0.0002    Y=              0.1929    Z=             -0.3112  Tot=              0.3662
 Quadrupole moment (field-independent basis, Debye-Ang):
   XX=            -33.3111   YY=            -38.4261   ZZ=            -34.3263
   XY=             -0.0008   XZ=              0.0002   YZ=              0.1417

 Summary of Natural Population Analysis:

                                       Natural Population
                Natural  -----------------------------------------------
    Atom  No    Charge         Core      Valence    Rydberg      Total
 -----------------------------------------------------------------------
      C    1   -0.34223      1.99933     4.32338    0.01951     6.34223
      C    2   -0.47476      1.99936     4.46271    0.01268     6.47476
      C    3   -0.47476      1.99936     4.46271    0.01268     6.47476
      C    4   -0.34223      1.99933     4.32338    0.01951     6.34223
      N    5   -0.20548      1.99931     5.19031    0.01585     7.20548
      H    6    0.21483      0.00000     0.76356    0.02160     0.78517
      H    7    0.21838      0.00000     0.74265    0.03897     0.78162
      H    8    0.19395      0.00000     0.78674    0.01931     0.80605
      H    9    0.21774      0.00000     0.77086    0.01140     0.78226
      H   10    0.19396      0.00000     0.78673    0.01931     0.80604
      H   11    0.21775      0.00000     0.77086    0.01139     0.78225
      H   12    0.21839      0.00000     0.74264    0.03897     0.78161
      H   13    0.21483      0.00000     0.76357    0.02160     0.78517
      H   14    0.14961      0.00000     0.74004    0.11035     0.85039
 =======================================================================
   * Total *    0.00000      9.99671    29.63015    0.37315    40.00000

 Normal termination of Gaussian 09 at Mon Oct  4 11:26:37 2021.
