 Gaussian 09, Revision A.02,

 -----------------------------------
 #p opt b3lyp/6-31G* scf=(xqc,tight)
 -----------------------------------

 -------------------
 Br[Mg]CC(C)C_conf_0
 -------------------
 Symbolic Z-matrix:
 Charge =  0 Multiplicity = 1

 SCF Done:  E(RB3LYP) =  -2929.68573002     A.U. after   14 cycles
 SCF Done:  E(RB3LYP) =  -2929.69892099     A.U. after   10 cycles
 SCF Done:  E(RB3LYP) =  -2929.71133561     A.U. after   12 cycles
 SCF Done:  E(RB3LYP) =  -2929.71687792     A.U. after   12 cycles
 SCF Done:  E(RB3LYP) =  -2929.71965324     A.U. after   12 cycles
 SCF Done:  E(RB3LYP) =  -2929.72027152     A.U. after    9 cycles
 SCF Done:  E(RB3LYP) =  -2929.72087990     A.U. after   10 cycles
 SCF Done:  E(RB3LYP) =  -2929.72097110     A.U. after    9 cycles
 SCF Done:  E(RB3LYP) =  -2929.72098387     A.U. after    8 cycles
 SCF Done:  E(RB3LYP) =  -2929.72098622     A.U. after    7 cycles
 SCF Done:  E(RB3LYP) =  -2929.72098673     A.U. after    7 cycles
 SCF Done:  E(RB3LYP) =  -2929.72098685     A.U. after    7 cycles
 Optimization completed.
    -- Stationary point found.
 Normal termination of Gaussian 09 at Tue Oct  5 16:49:02 2021.

 ----------------------------------------------------------------------
 #p freq b3lyp/6-31G* volume NMR pop=NPA density=current Geom=AllCheck
 Guess=Read
 ----------------------------------------------------------------------

 Br[Mg]CC(C)C_conf_0
 -------------------
 Redundant internal coordinates taken from checkpoint file:
 C4H9BrMg_415c_conf_0.chk
 Charge =  0 Multiplicity = 1

 SCF Done:  E(RB3LYP) =  -2929.72098685     A.U. after    1 cycles

  1  Br   Isotropic =  2879.4229   Anisotropy =   358.2359

  2  Mg   Isotropic =   502.1190   Anisotropy =   317.6078

  3  C    Isotropic =   168.7734   Anisotropy =    46.8154

  4  C    Isotropic =   158.5084   Anisotropy =    10.4612

  5  C    Isotropic =   161.6868   Anisotropy =    39.3362

  6  C    Isotropic =   157.9792   Anisotropy =    43.3129

  7  H    Isotropic =    31.8898   Anisotropy =     5.3102

  8  H    Isotropic =    31.5257   Anisotropy =     7.7123

  9  H    Isotropic =    30.0400   Anisotropy =     6.5651

 10  H    Isotropic =    31.4131   Anisotropy =     6.3524

 11  H    Isotropic =    31.0068   Anisotropy =     8.2375

 12  H    Isotropic =    30.9636   Anisotropy =     9.6331

 13  H    Isotropic =    31.0974   Anisotropy =     5.5641

 14  H    Isotropic =    30.7514   Anisotropy =     9.1446

 15  H    Isotropic =    31.4330   Anisotropy =     6.8258

  Exact polarizability: 117.990   2.118  74.088   0.555  -0.380  68.310
 Approx polarizability: 147.351   6.379 103.460  -1.043  -0.956 102.022

                     1                      2                      3
                     A                      A                      A
 Frequencies --    40.3918                57.8781               136.6942
 Red. masses --     4.0700                 4.1202                 5.7613
 Frc consts  --     0.0039                 0.0081                 0.0634
 IR Inten    --     0.9452                 2.9723                23.1140

                     4                      5                      6
                     A                      A                      A
 Frequencies --   168.6118               224.9844               237.2142
 Red. masses --     5.4417                 3.7284                 1.0522
 Frc consts  --     0.0912                 0.1112                 0.0349
 IR Inten    --    23.8927                 6.4822                 1.1590

                     7                      8                      9
                     A                      A                      A
 Frequencies --   266.2539               377.2109               392.0553
 Red. masses --     1.1151                 2.1996                 2.0548
 Frc consts  --     0.0466                 0.1844                 0.1861
 IR Inten    --     0.1698                 9.1052                14.2899

                    10                     11                     12
                     A                      A                      A
 Frequencies --   434.0699               611.2475               631.5641
 Red. masses --     3.0088                 4.1903                 1.5048
 Frc consts  --     0.3340                 0.9224                 0.3536
 IR Inten    --    30.6504                38.3389                47.0905

                    13                     14                     15
                     A                      A                      A
 Frequencies --   811.0509               933.4865               954.3790
 Red. masses --     2.7623                 1.2045                 1.7624
 Frc consts  --     1.0706                 0.6184                 0.9458
 IR Inten    --     2.2493                 0.2438                 1.9334

                    16                     17                     18
                     A                      A                      A
 Frequencies --   969.8208              1027.7173              1072.9211
 Red. masses --     1.5735                 1.1916                 1.6858
 Frc consts  --     0.8720                 0.7416                 1.1434
 IR Inten    --     0.2998                12.6620                15.5885

                    19                     20                     21
                     A                      A                      A
 Frequencies --  1183.0906              1187.6308              1242.5588
 Red. masses --     1.6424                 1.7939                 1.6198
 Frc consts  --     1.3544                 1.4908                 1.4735
 IR Inten    --    14.8322                13.6529                 8.4069

                    22                     23                     24
                     A                      A                      A
 Frequencies --  1365.7002              1371.8222              1424.9490
 Red. masses --     1.2801                 1.3591                 1.2482
 Frc consts  --     1.4067                 1.5069                 1.4933
 IR Inten    --     7.5312                 5.2042                 3.9491

                    25                     26                     27
                     A                      A                      A
 Frequencies --  1443.3544              1481.0478              1509.5231
 Red. masses --     1.2262                 1.0996                 1.0465
 Frc consts  --     1.5050                 1.4211                 1.4049
 IR Inten    --     1.9140                 0.8362                 0.9443

                    28                     29                     30
                     A                      A                      A
 Frequencies --  1521.8457              1531.8443              1533.8101
 Red. masses --     1.0538                 1.0504                 1.0477
 Frc consts  --     1.4379                 1.4522                 1.4522
 IR Inten    --     3.0046                 2.3989                10.4165

                    31                     32                     33
                     A                      A                      A
 Frequencies --  2990.8990              3001.6125              3007.1320
 Red. masses --     1.0729                 1.0685                 1.0477
 Frc consts  --     5.6547                 5.6721                 5.5822
 IR Inten    --    15.8652                30.3859                51.2538

                    34                     35                     36
                     A                      A                      A
 Frequencies --  3032.3733              3044.8963              3071.0570
 Red. masses --     1.0365                 1.0956                 1.0903
 Frc consts  --     5.6152                 5.9850                 6.0586
 IR Inten    --    32.3519                22.5766                58.4869

                    37                     38                     39
                     A                      A                      A
 Frequencies --  3093.4067              3105.3501              3109.1097
 Red. masses --     1.1021                 1.1008                 1.1013
 Frc consts  --     6.2135                 6.2543                 6.2726
 IR Inten    --    19.3966                64.4878                38.7802

 - Thermochemistry -
 -------------------
 Temperature   298.150 Kelvin.  Pressure   1.00000 Atm.
 Atom     1 has atomic number 35 and mass  78.91834

 Molecular mass:   159.97381 amu.
 Principal axes and moments of inertia in atomic units:
                           1         2         3
     Eigenvalues --   256.295243686.962213866.62453
           X            0.99999  -0.00381   0.00092
           Y            0.00380   0.99997   0.00659
           Z           -0.00095  -0.00659   0.99998
 This molecule is an asymmetric top.
 Rotational symmetry number  1.
 Rotational temperatures (Kelvin)      0.33795     0.02349     0.02240
 Rotational constants (GHZ):           7.04165     0.48949     0.46675
 Zero-point vibrational energy     320602.6 (Joules/Mol)
                                   76.62585 (Kcal/Mol)
 Warning -- explicit consideration of  11 degrees of freedom as
           vibrations may cause significant error
 Vibrational temperatures:     58.11    83.27   196.67   242.59   323.70
          (Kelvin)            341.30   383.08   542.72   564.08   624.53
                              879.45   908.68  1166.92  1343.08  1373.14
                             1395.35  1478.65  1543.69  1702.20  1708.73
                             1787.76  1964.94  1973.74  2050.18  2076.66
                             2130.89  2171.86  2189.59  2203.98  2206.81
                             4303.23  4318.65  4326.59  4362.90  4380.92
                             4418.56  4450.72  4467.90  4473.31

 Zero-point correction=                           0.122111 (Hartree/Particle)
 Thermal correction to Energy=                    0.130983
 Thermal correction to Enthalpy=                  0.131927
 Thermal correction to Gibbs Free Energy=         0.086367
 Sum of electronic and zero-point Energies=          -2929.598876
 Sum of electronic and thermal Energies=             -2929.590004
 Sum of electronic and thermal Enthalpies=           -2929.589060
 Sum of electronic and thermal Free Energies=        -2929.634620

                     E (Thermal)             CV                S
                      KCal/Mol        Cal/Mol-Kelvin    Cal/Mol-Kelvin
 Total                   82.193             29.382             95.890
 Electronic               0.000              0.000              0.000
 Translational            0.889              2.981             41.119
 Rotational               0.889              2.981             29.681
 Vibrational             80.416             23.421             25.091
 Vibration     1          0.594              1.981              5.240
 Vibration     2          0.596              1.974              4.528
 Vibration     3          0.614              1.917              2.850
 Vibration     4          0.625              1.881              2.451
 Vibration     5          0.650              1.803              1.919
 Vibration     6          0.656              1.784              1.824
 Vibration     7          0.672              1.735              1.620
 Vibration     8          0.748              1.519              1.050
 Vibration     9          0.759              1.487              0.992
 Vibration    10          0.795              1.396              0.845
 Vibration    11          0.970              1.008              0.431

 Normal termination of Gaussian 09 at Tue Oct  5 16:52:11 2021.
 Gaussian 09:  AM64L-G09RevA.02 11-Jun-2009

 ----------------------------------------------------------------------
 #p TD(NStates=10, Root=1) b3lyp/6-31G* volume pop=NPA density=current
 Geom=AllCheck Guess=Read
 ----------------------------------------------------------------------

 Br[Mg]CC(C)C_conf_0
 -------------------
 Redundant internal coordinates taken from checkpoint file:
 C4H9BrMg_415c_conf_0.chk
 Charge =  0 Multiplicity = 1

                         Standard orientation:
 ---------------------------------------------------------------------
 Center     Atomic      Atomic             Coordinates (Angstroms)
 Number     Number       Type             X           Y           Z
 ---------------------------------------------------------------------
      1         35           0        2.588826    0.075481   -0.046932
      2         12           0        0.302100   -0.406844    0.116252
      3          6           0       -1.720261   -0.942412    0.266763
      4          6           0       -2.720450    0.055908   -0.354981
      5          6           0       -4.175605   -0.398989   -0.139765
      6          6           0       -2.521975    1.478720    0.189362
      7          1           0       -1.951099   -1.067499    1.337447
      8          1           0       -1.859932   -1.938421   -0.178680
      9          1           0       -2.546278    0.090203   -1.441995
     10          1           0       -4.415400   -0.436100    0.931045
     11          1           0       -4.338916   -1.401939   -0.550560
     12          1           0       -4.889629    0.282750   -0.619957
     13          1           0       -2.631157    1.498204    1.281958
     14          1           0       -3.250686    2.182742   -0.229746
     15          1           0       -1.521252    1.870990   -0.050184
 ---------------------------------------------------------------------

 SCF Done:  E(RB3LYP) =  -2929.72098685     A.U. after    1 cycles

 Excitation energies and oscillator strengths:

 Excited State   1:      Singlet-A      5.1672 eV  239.94 nm  f=0.3203  <S**2>=0.000
      40 -> 41         0.69196
 This state for optimization and/or second-order correction.
 Total Energy, E(TD-HF/TD-KS) =  -2929.53109582
 Copying the excited state density for this state as the 1-particle RhoCI density.

 Excited State   2:      Singlet-A      5.3421 eV  232.09 nm  f=0.0281  <S**2>=0.000
      38 -> 41        -0.25265
      40 -> 42         0.64882

 Excited State   3:      Singlet-A      5.4323 eV  228.24 nm  f=0.0001  <S**2>=0.000
      38 -> 41        -0.14238
      39 -> 41         0.49157
      40 -> 43        -0.48470

 Excited State   4:      Singlet-A      5.5156 eV  224.79 nm  f=0.0758  <S**2>=0.000
      38 -> 41         0.62309
      39 -> 41         0.20190
      40 -> 42         0.25803

 Excited State   5:      Singlet-A      5.5535 eV  223.26 nm  f=0.0908  <S**2>=0.000
      38 -> 41        -0.15912
      39 -> 41         0.45919
      40 -> 43         0.50833

 Excited State   6:      Singlet-A      6.1905 eV  200.28 nm  f=0.0003  <S**2>=0.000
      38 -> 42        -0.16572
      39 -> 42         0.68390

 Excited State   7:      Singlet-A      6.2512 eV  198.34 nm  f=0.0022  <S**2>=0.000
      38 -> 42         0.54019
      38 -> 43         0.10952
      39 -> 42         0.14121
      39 -> 43        -0.41571

 Excited State   8:      Singlet-A      6.3093 eV  196.51 nm  f=0.0001  <S**2>=0.000
      38 -> 43         0.68409
      39 -> 43         0.16531

 Excited State   9:      Singlet-A      6.5802 eV  188.42 nm  f=0.0252  <S**2>=0.000
      36 -> 41         0.27622
      37 -> 41         0.34811
      38 -> 42         0.30090
      39 -> 43         0.43542

 Excited State  10:      Singlet-A      6.8627 eV  180.66 nm  f=0.0311  <S**2>=0.000
      36 -> 41        -0.45884
      37 -> 41         0.51766

 The electronic state is 1-A.
 Alpha  occ. eigenvalues -- -482.87411 -61.83653 -56.35336 -56.35216 -56.35213
 Alpha  occ. eigenvalues --  -46.83501 -10.19350 -10.18174 -10.17125 -10.15981
 Alpha  occ. eigenvalues --   -8.54544  -6.49267  -6.48884  -6.48882  -3.12351
 Alpha  occ. eigenvalues --   -2.60945  -2.60824  -2.60823  -2.60518  -2.60518
 Alpha  occ. eigenvalues --   -1.86956  -1.86945  -1.86311  -0.79565  -0.72026
 Alpha  occ. eigenvalues --   -0.68427  -0.65883  -0.55555  -0.45831  -0.43293
 Alpha  occ. eigenvalues --   -0.41122  -0.38483  -0.37459  -0.34585  -0.32720
 Alpha  occ. eigenvalues --   -0.32422  -0.32128  -0.27578  -0.27572  -0.24304
 Alpha virt. eigenvalues --   -0.03877  -0.01268  -0.00797   0.05886   0.11155
 Alpha virt. eigenvalues --    0.11378   0.12788   0.13389   0.14933   0.15977
 Alpha virt. eigenvalues --    0.16389   0.18025   0.18279   0.19393   0.20190

 Mulliken atomic charges:
              1
     1  Br  -0.168878
     2  Mg   0.070086
     3  C   -0.451447
     4  C   -0.086854
     5  C   -0.434439
     6  C   -0.458020
     7  H    0.187145
     8  H    0.194316
     9  H    0.170232
    10  H    0.160395
    11  H    0.161521
    12  H    0.167258
    13  H    0.156112
    14  H    0.160055
    15  H    0.172518
 Sum of Mulliken atomic charges =  -0.00000

 Dipole moment (field-independent basis, Debye):
    X=             -6.5674    Y=             -0.8523    Z=              1.1883  Tot=              6.7282
 Quadrupole moment (field-independent basis, Debye-Ang):
   XX=            -57.5748   YY=            -58.2557   ZZ=            -59.5288
   XY=              0.3179   XZ=              0.7468   YZ=             -0.7596

 Summary of Natural Population Analysis:

                                       Natural Population
                Natural  -----------------------------------------------
    Atom  No    Charge         Core      Valence    Rydberg      Total
 -----------------------------------------------------------------------
     Br    1   -0.58946     27.99973     7.57750    0.01224    35.58946
     Mg    2    0.86156      9.99584     1.09576    0.04684    11.13844
      C    3   -0.78861      1.99936     4.75438    0.03487     6.78861
      C    4   -0.29163      1.99927     4.28080    0.01156     6.29163
      C    5   -0.65084      1.99934     4.64170    0.00979     6.65084
      C    6   -0.68385      1.99941     4.67464    0.00980     6.68385
      H    7    0.22629      0.00000     0.77130    0.00241     0.77371
      H    8    0.23488      0.00000     0.76284    0.00228     0.76512
      H    9    0.25546      0.00000     0.74035    0.00419     0.74454
      H   10    0.23636      0.00000     0.76230    0.00134     0.76364
      H   11    0.24141      0.00000     0.75731    0.00128     0.75859
      H   12    0.24882      0.00000     0.74916    0.00202     0.75118
      H   13    0.23000      0.00000     0.76824    0.00176     0.77000
      H   14    0.24377      0.00000     0.75515    0.00108     0.75623
      H   15    0.22583      0.00000     0.77206    0.00211     0.77417
 =======================================================================
   * Total *    0.00000     45.99295    33.86348    0.14357    80.00000

 Normal termination of Gaussian 09 at Tue Oct  5 16:57:19 2021.
