 Gaussian 09, Revision A.02,

 -----------------------------------
 #p opt b3lyp/6-31G* scf=(xqc,tight)
 -----------------------------------

 ---------------
 C1CNCCO1_conf_0
 ---------------
 Symbolic Z-matrix:
 Charge =  0 Multiplicity = 1

 SCF Done:  E(RB3LYP) =  -287.791445610     A.U. after   13 cycles
 SCF Done:  E(RB3LYP) =  -287.792558609     A.U. after   11 cycles
 SCF Done:  E(RB3LYP) =  -287.792675385     A.U. after   10 cycles
 SCF Done:  E(RB3LYP) =  -287.792688238     A.U. after    9 cycles
 SCF Done:  E(RB3LYP) =  -287.792689079     A.U. after    7 cycles
 Optimization completed.
    -- Stationary point found.
 Normal termination of Gaussian 09 at Mon Oct  4 09:25:07 2021.

 ----------------------------------------------------------------------
 #p freq b3lyp/6-31G* volume NMR pop=NPA density=current Geom=AllCheck
 Guess=Read
 ----------------------------------------------------------------------

 C1CNCCO1_conf_0
 ---------------
 Redundant internal coordinates taken from checkpoint file:
 C4H9NO_56a0_conf_0.chk
 Charge =  0 Multiplicity = 1

 SCF Done:  E(RB3LYP) =  -287.792689079     A.U. after    1 cycles

  1  C    Isotropic =   123.0093   Anisotropy =    40.8280

  2  C    Isotropic =   144.0315   Anisotropy =    19.3004

  3  N    Isotropic =   218.5113   Anisotropy =    63.7675

  4  C    Isotropic =   144.0316   Anisotropy =    19.3021

  5  C    Isotropic =   123.0098   Anisotropy =    40.8312

  6  O    Isotropic =   288.3198   Anisotropy =    58.2580

  7  H    Isotropic =    28.6154   Anisotropy =     6.5517

  8  H    Isotropic =    28.9793   Anisotropy =     6.9526

  9  H    Isotropic =    29.8456   Anisotropy =     7.7370

 10  H    Isotropic =    29.3012   Anisotropy =     7.3636

 11  H    Isotropic =    32.1349   Anisotropy =    11.6930

 12  H    Isotropic =    29.8456   Anisotropy =     7.7368

 13  H    Isotropic =    29.3012   Anisotropy =     7.3638

 14  H    Isotropic =    28.9793   Anisotropy =     6.9527

 15  H    Isotropic =    28.6154   Anisotropy =     6.5516

  Exact polarizability:  58.636  -0.001  47.084   0.000   0.600  47.340
 Approx polarizability:  74.994  -0.001  64.336   0.000   3.677  69.936

                     1                      2                      3
                     A                      A                      A
 Frequencies --   255.2814               263.7034               411.7470
 Red. masses --     1.7150                 2.4681                 1.7197
 Frc consts  --     0.0659                 0.1011                 0.1718
 IR Inten    --     0.1045                13.4923                 7.1111

                     4                      5                      6
                     A                      A                      A
 Frequencies --   444.1745               488.9387               599.2105
 Red. masses --     6.1006                 2.5992                 1.4381
 Frc consts  --     0.7091                 0.3661                 0.3042
 IR Inten    --     0.7049                 0.7259                 4.1316

                     7                      8                      9
                     A                      A                      A
 Frequencies --   813.1466               850.6312               851.7820
 Red. masses --     2.1837                 2.8432                 1.6168
 Frc consts  --     0.8507                 1.2121                 0.6912
 IR Inten    --   136.0325                39.7323                 0.9135

                    10                     11                     12
                     A                      A                      A
 Frequencies --   893.4296               926.2610              1021.2811
 Red. masses --     2.4361                 1.7493                 2.4465
 Frc consts  --     1.1457                 0.8843                 1.5034
 IR Inten    --     9.3459                 1.1844                 1.0622

                    13                     14                     15
                     A                      A                      A
 Frequencies --  1056.5167              1062.7920              1144.1679
 Red. masses --     1.4763                 2.3351                 5.0925
 Frc consts  --     0.9709                 1.5540                 3.9279
 IR Inten    --    10.2481                 7.7727               106.9837

                    16                     17                     18
                     A                      A                      A
 Frequencies --  1156.9100              1186.5604              1227.3123
 Red. masses --     5.1912                 2.0778                 1.1222
 Frc consts  --     4.0937                 1.7236                 0.9959
 IR Inten    --     8.8613                11.0292                 3.9576

                    19                     20                     21
                     A                      A                      A
 Frequencies --  1288.1107              1335.3194              1359.0157
 Red. masses --     1.2140                 1.2230                 1.2721
 Frc consts  --     1.1868                 1.2849                 1.3843
 IR Inten    --    21.1268                 2.3763                 3.4873

                    22                     23                     24
                     A                      A                      A
 Frequencies --  1369.1445              1400.9393              1415.5176
 Red. masses --     1.2523                 1.2625                 1.3462
 Frc consts  --     1.3831                 1.4599                 1.5893
 IR Inten    --     1.0150                15.2036                 2.8863

                    25                     26                     27
                     A                      A                      A
 Frequencies --  1440.9294              1496.7905              1502.8572
 Red. masses --     1.3379                 1.0783                 1.1645
 Frc consts  --     1.6367                 1.4233                 1.5496
 IR Inten    --     6.9600                 0.0708                 8.1954

                    28                     29                     30
                     A                      A                      A
 Frequencies --  1507.4177              1518.1846              1523.5807
 Red. masses --     1.1024                 1.1105                 1.1075
 Frc consts  --     1.4759                 1.5081                 1.5146
 IR Inten    --     5.3561                 2.0818                 2.5300

                    31                     32                     33
                     A                      A                      A
 Frequencies --  2955.3889              2964.7557              3043.4686
 Red. masses --     1.0719                 1.0721                 1.0596
 Frc consts  --     5.5159                 5.5523                 5.7829
 IR Inten    --    24.2307               112.1845                35.4386

                    34                     35                     36
                     A                      A                      A
 Frequencies --  3047.5707              3091.9823              3092.8263
 Red. masses --     1.0614                 1.0999                 1.1018
 Frc consts  --     5.8084                 6.1956                 6.2095
 IR Inten    --    36.3605                78.7800                19.8573

                    37                     38                     39
                     A                      A                      A
 Frequencies --  3096.2231              3097.8442              3453.7102
 Red. masses --     1.0965                 1.0968                 1.0736
 Frc consts  --     6.1936                 6.2015                 7.5448
 IR Inten    --    22.9818                61.7004                 3.2083

 - Thermochemistry -
 -------------------
 Temperature   298.150 Kelvin.  Pressure   1.00000 Atm.
 Atom     1 has atomic number  6 and mass  12.00000

 Molecular mass:    87.06841 amu.
 Principal axes and moments of inertia in atomic units:
                           1         2         3
     Eigenvalues --   371.32370 394.68397 678.08298
           X            0.00012   1.00000  -0.00000
           Y            0.99989  -0.00012  -0.01451
           Z            0.01451  -0.00000   0.99989
 This molecule is an asymmetric top.
 Rotational symmetry number  1.
 Rotational temperatures (Kelvin)      0.23326     0.21945     0.12773
 Rotational constants (GHZ):           4.86029     4.57262     2.66153
 Zero-point vibrational energy     356818.7 (Joules/Mol)
                                   85.28171 (Kcal/Mol)
 Warning -- explicit consideration of   6 degrees of freedom as
           vibrations may cause significant error
 Vibrational temperatures:    367.29   379.41   592.41   639.07   703.47
          (Kelvin)            862.13  1169.94  1223.87  1225.52  1285.44
                             1332.68  1469.39  1520.09  1529.12  1646.20
                             1664.53  1707.19  1765.83  1853.30  1921.22
                             1955.32  1969.89  2015.64  2036.61  2073.17
                             2153.55  2162.27  2168.84  2184.33  2192.09
                             4252.14  4265.62  4378.87  4384.77  4448.67
                             4449.88  4454.77  4457.10  4969.11

 Zero-point correction=                           0.135905 (Hartree/Particle)
 Thermal correction to Energy=                    0.141201
 Thermal correction to Enthalpy=                  0.142146
 Thermal correction to Gibbs Free Energy=         0.107448
 Sum of electronic and zero-point Energies=           -287.656784
 Sum of electronic and thermal Energies=              -287.651488
 Sum of electronic and thermal Enthalpies=            -287.650543
 Sum of electronic and thermal Free Energies=         -287.685241

                     E (Thermal)             CV                S
                      KCal/Mol        Cal/Mol-Kelvin    Cal/Mol-Kelvin
 Total                   88.605             20.379             73.027
 Electronic               0.000              0.000              0.000
 Translational            0.889              2.981             39.305
 Rotational               0.889              2.981             26.100
 Vibrational             86.828             14.417              7.623
 Vibration     1          0.666              1.754              1.694
 Vibration     2          0.670              1.739              1.637
 Vibration     3          0.776              1.445              0.920
 Vibration     4          0.804              1.374              0.814
 Vibration     5          0.845              1.275              0.686
 Vibration     6          0.957              1.033              0.451

 Optimization completed.
    -- Stationary point found.
 Normal termination of Gaussian 09 at Mon Oct  4 09:48:21 2021.
 Gaussian 09:  AM64L-G09RevA.02 11-Jun-2009

 ----------------------------------------------------------------------
 #p TD(NStates=10, Root=1) b3lyp/6-31G* volume pop=NPA density=current
 Geom=AllCheck Guess=Read
 ----------------------------------------------------------------------

 C1CNCCO1_conf_0
 ---------------
 Redundant internal coordinates taken from checkpoint file:
 C4H9NO_56a0_conf_0.chk
 Charge =  0 Multiplicity = 1

                         Standard orientation:
 ---------------------------------------------------------------------
 Center     Atomic      Atomic             Coordinates (Angstroms)
 Number     Number       Type             X           Y           Z
 ---------------------------------------------------------------------
      1          6           0       -1.178078   -0.750023    0.199365
      2          6           0       -1.207234    0.722914   -0.219574
      3          7           0        0.000097    1.454561    0.187136
      4          6           0        1.207340    0.722757   -0.219553
      5          6           0        1.177973   -0.750189    0.199345
      6          8           0       -0.000104   -1.393318   -0.275202
      7          1           0       -2.022354   -1.307258   -0.221046
      8          1           0       -1.229745   -0.826302    1.301460
      9          1           0       -2.087861    1.225945    0.198238
     10          1           0       -1.280487    0.780386   -1.313577
     11          1           0        0.000100    1.547205    1.204023
     12          1           0        2.088022    1.225650    0.198312
     13          1           0        1.280637    0.780260   -1.313549
     14          1           0        1.229675   -0.826517    1.301432
     15          1           0        2.022162   -1.307512   -0.221127
 ---------------------------------------------------------------------

 SCF Done:  E(RB3LYP) =  -287.792689079     A.U. after    1 cycles

 Excitation energies and oscillator strengths:

 Excited State   1:      Singlet-A      6.7663 eV  183.24 nm  f=0.0122  <S**2>=0.000
      24 -> 25         0.69849
 This state for optimization and/or second-order correction.
 Total Energy, E(TD-HF/TD-KS) =  -287.544030573
 Copying the excited state density for this state as the 1-particle RhoCI density.

 Excited State   2:      Singlet-A      7.8298 eV  158.35 nm  f=0.0350  <S**2>=0.000
      24 -> 26         0.69978

 Excited State   3:      Singlet-A      8.0265 eV  154.47 nm  f=0.0087  <S**2>=0.000
      23 -> 25        -0.14416
      24 -> 28         0.68735

 Excited State   4:      Singlet-A      8.2555 eV  150.18 nm  f=0.0643  <S**2>=0.000
      24 -> 27         0.70397

 Excited State   5:      Singlet-A      8.2626 eV  150.06 nm  f=0.0065  <S**2>=0.000
      23 -> 25         0.23926
      24 -> 29         0.64444

 Excited State   6:      Singlet-A      8.6300 eV  143.67 nm  f=0.0523  <S**2>=0.000
      23 -> 25         0.62856
      24 -> 28         0.13139
      24 -> 29        -0.25759

 Excited State   7:      Singlet-A      8.8169 eV  140.62 nm  f=0.0041  <S**2>=0.000
      23 -> 25        -0.10175
      24 -> 30         0.69189

 Excited State   8:      Singlet-A      9.1332 eV  135.75 nm  f=0.0070  <S**2>=0.000
      24 -> 31         0.69776

 Excited State   9:      Singlet-A      9.2251 eV  134.40 nm  f=0.0014  <S**2>=0.000
      23 -> 26        -0.24672
      24 -> 32         0.65307

 Excited State  10:      Singlet-A      9.2969 eV  133.36 nm  f=0.0156  <S**2>=0.000
      24 -> 33         0.68794
      24 -> 34         0.11154

 The electronic state is 1-A.
 Alpha  occ. eigenvalues --  -19.14411 -14.32054 -10.22702 -10.22701 -10.20662
 Alpha  occ. eigenvalues --  -10.20661  -1.02988  -0.90000  -0.76589  -0.67464
 Alpha  occ. eigenvalues --   -0.64649  -0.58264  -0.49675  -0.47216  -0.46539
 Alpha  occ. eigenvalues --   -0.45235  -0.44200  -0.39056  -0.37007  -0.35815
 Alpha  occ. eigenvalues --   -0.34883  -0.31642  -0.26963  -0.20986
 Alpha virt. eigenvalues --    0.08149   0.11744   0.13060   0.13147   0.13298
 Alpha virt. eigenvalues --    0.15571   0.16561   0.17163   0.17670   0.18302
 Alpha virt. eigenvalues --    0.23868   0.24029   0.25274   0.27195   0.28471

 Mulliken atomic charges:
              1
     1  C   -0.021612
     2  C   -0.169315
     3  N   -0.165630
     4  C   -0.169311
     5  C   -0.021613
     6  O   -0.407243
     7  H    0.154803
     8  H    0.107933
     9  H    0.096899
    10  H    0.169634
    11  H   -0.103796
    12  H    0.096885
    13  H    0.169632
    14  H    0.107936
    15  H    0.154800
 Sum of Mulliken atomic charges =  -0.00000

 Dipole moment (field-independent basis, Debye):
    X=             -0.0002    Y=             -0.6773    Z=             -1.6719  Tot=              1.8039
 Quadrupole moment (field-independent basis, Debye-Ang):
   XX=            -34.7922   YY=            -43.4040   ZZ=            -41.7639
   XY=             -0.0007   XZ=             -0.0004   YZ=             -3.9751

 Summary of Natural Population Analysis:

                                       Natural Population
                Natural  -----------------------------------------------
    Atom  No    Charge         Core      Valence    Rydberg      Total
 -----------------------------------------------------------------------
      C    1   -0.12643      1.99924     4.10706    0.02014     6.12643
      C    2   -0.34562      1.99934     4.32675    0.01953     6.34562
      N    3   -0.32829      1.99938     5.30570    0.02321     7.32829
      C    4   -0.34562      1.99934     4.32675    0.01953     6.34562
      C    5   -0.12644      1.99924     4.10706    0.02014     6.12644
      O    6   -0.50688      1.99981     6.49462    0.01245     8.50688
      H    7    0.23376      0.00000     0.76023    0.00601     0.76624
      H    8    0.18283      0.00000     0.78663    0.03055     0.81717
      H    9    0.19266      0.00000     0.77567    0.03167     0.80734
      H   10    0.24725      0.00000     0.74952    0.00324     0.75275
      H   11    0.06629      0.00000     0.81173    0.12198     0.93371
      H   12    0.19265      0.00000     0.77567    0.03167     0.80735
      H   13    0.24725      0.00000     0.74952    0.00324     0.75275
      H   14    0.18283      0.00000     0.78662    0.03055     0.81717
      H   15    0.23376      0.00000     0.76023    0.00601     0.76624
 =======================================================================
   * Total *    0.00000     11.99635    35.62375    0.37990    48.00000

 Normal termination of Gaussian 09 at Mon Oct  4 11:03:07 2021.
