 Gaussian 09, Revision A.02,

 -----------------------------------
 #p opt b3lyp/6-31G* scf=(xqc,tight)
 -----------------------------------

 ---------------
 C1CCCNC1_conf_0
 ---------------
 Symbolic Z-matrix:
 Charge =  0 Multiplicity = 1

 SCF Done:  E(RB3LYP) =  -251.903023178     A.U. after   12 cycles
 SCF Done:  E(RB3LYP) =  -251.904288476     A.U. after   11 cycles
 SCF Done:  E(RB3LYP) =  -251.904385804     A.U. after   13 cycles
 SCF Done:  E(RB3LYP) =  -251.904397129     A.U. after    8 cycles
 SCF Done:  E(RB3LYP) =  -251.904398689     A.U. after   13 cycles
 Optimization completed.
    -- Stationary point found.
 Normal termination of Gaussian 09 at Mon Oct  4 09:58:29 2021.

 ----------------------------------------------------------------------
 #p freq b3lyp/6-31G* volume NMR pop=NPA density=current Geom=AllCheck
 Guess=Read
 ----------------------------------------------------------------------

 C1CCCNC1_conf_0
 ---------------
 Redundant internal coordinates taken from checkpoint file:
 C5H11N_f29f_conf_0.chk
 Charge =  0 Multiplicity = 1

 SCF Done:  E(RB3LYP) =  -251.904398688     A.U. after    1 cycles

  1  C    Isotropic =   162.3795   Anisotropy =     6.7899

  2  C    Isotropic =   163.5360   Anisotropy =     5.0681

  3  C    Isotropic =   162.3809   Anisotropy =     6.7791

  4  C    Isotropic =   141.9890   Anisotropy =    27.8045

  5  N    Isotropic =   208.2292   Anisotropy =    45.3854

  6  C    Isotropic =   141.9884   Anisotropy =    27.7777

  7  H    Isotropic =    30.5170   Anisotropy =     7.7231

  8  H    Isotropic =    30.8500   Anisotropy =     8.9053

  9  H    Isotropic =    30.8810   Anisotropy =     7.2672

 10  H    Isotropic =    30.5590   Anisotropy =     8.9681

 11  H    Isotropic =    30.8501   Anisotropy =     8.9046

 12  H    Isotropic =    30.5165   Anisotropy =     7.7242

 13  H    Isotropic =    29.5058   Anisotropy =     7.3980

 14  H    Isotropic =    29.3943   Anisotropy =     7.8794

 15  H    Isotropic =    31.7423   Anisotropy =    14.5779

 16  H    Isotropic =    29.5066   Anisotropy =     7.3961

 17  H    Isotropic =    29.3945   Anisotropy =     7.8802

  Exact polarizability:  59.927  -0.004  62.328  -0.005  -0.000  52.013
 Approx polarizability:  77.739  -0.003  79.903  -1.413  -0.003  78.133

                     1                      2                      3
                     A                      A                      A
 Frequencies --   249.1753               253.7424               403.0970
 Red. masses --     1.9364                 1.7816                 1.6941
 Frc consts  --     0.0708                 0.0676                 0.1622
 IR Inten    --     1.3685                 0.4590                 1.3619

                     4                      5                      6
                     A                      A                      A
 Frequencies --   437.3109               453.5988               550.9836
 Red. masses --     3.1798                 2.9956                 1.4022
 Frc consts  --     0.3583                 0.3631                 0.2508
 IR Inten    --     7.6420                 0.8987                19.8403

                     7                      8                      9
                     A                      A                      A
 Frequencies --   782.0932               827.4227               829.2707
 Red. masses --     1.5831                 3.2982                 1.4620
 Frc consts  --     0.5705                 1.3304                 0.5924
 IR Inten    --    83.7084                 0.6302                 0.5376

                    10                     11                     12
                     A                      A                      A
 Frequencies --   880.4609               885.6742               919.5486
 Red. masses --     1.7251                 2.3683                 1.5976
 Frc consts  --     0.7879                 1.0946                 0.7959
 IR Inten    --    12.2171                 0.0452                 3.7206

                    13                     14                     15
                     A                      A                      A
 Frequencies --   991.2537              1057.5663              1069.3939
 Red. masses --     1.2752                 1.9028                 1.6916
 Frc consts  --     0.7383                 1.2539                 1.1398
 IR Inten    --     0.8300                 1.3327                 1.7821

                    16                     17                     18
                     A                      A                      A
 Frequencies --  1073.8986              1143.0988              1180.6789
 Red. masses --     2.0145                 2.8327                 1.1766
 Frc consts  --     1.3688                 2.1808                 0.9664
 IR Inten    --    10.5960                18.1239                 3.5008

                    19                     20                     21
                     A                      A                      A
 Frequencies --  1181.0141              1194.9430              1302.5756
 Red. masses --     2.1872                 1.3006                 1.2510
 Frc consts  --     1.7974                 1.0942                 1.2506
 IR Inten    --     5.6031                 5.5417                 3.7844

                    22                     23                     24
                     A                      A                      A
 Frequencies --  1307.5356              1326.6075              1364.3324
 Red. masses --     1.1933                 1.2270                 1.2956
 Frc consts  --     1.2020                 1.2723                 1.4209
 IR Inten    --     2.4511                 0.4484                17.6656

                    25                     26                     27
                     A                      A                      A
 Frequencies --  1381.2754              1399.0506              1400.8470
 Red. masses --     1.3694                 1.4273                 1.4766
 Frc consts  --     1.5394                 1.6460                 1.7073
 IR Inten    --    19.8513                 0.7426                 0.5637

                    28                     29                     30
                     A                      A                      A
 Frequencies --  1447.0838              1498.7298              1508.0036
 Red. masses --     1.4724                 1.1980                 1.1478
 Frc consts  --     1.8167                 1.5854                 1.5379
 IR Inten    --     6.2875                 2.1824                 0.3368

                    31                     32                     33
                     A                      A                      A
 Frequencies --  1513.3953              1523.5187              1527.6346
 Red. masses --     1.0861                 1.1074                 1.1312
 Frc consts  --     1.4657                 1.5144                 1.5554
 IR Inten    --     5.9296                 4.7569                 0.5797

                    34                     35                     36
                     A                      A                      A
 Frequencies --  1540.2273              2906.4994              2913.7425
 Red. masses --     1.1004                 1.0746                 1.0727
 Frc consts  --     1.5381                 5.3485                 5.3659
 IR Inten    --     1.5851                28.3331               151.5748

                    37                     38                     39
                     A                      A                      A
 Frequencies --  3022.9776              3042.9339              3043.0463
 Red. masses --     1.0666                 1.0601                 1.0631
 Frc consts  --     5.7427                 5.7833                 5.8003
 IR Inten    --    29.2693                26.5611                13.8729

                    40                     41                     42
                     A                      A                      A
 Frequencies --  3072.3143              3075.0453              3077.3890
 Red. masses --     1.0938                 1.0866                 1.0876
 Frc consts  --     6.0830                 6.0538                 6.0688
 IR Inten    --    68.9874                94.9518                 7.7097

                    43                     44                     45
                     A                      A                      A
 Frequencies --  3084.5491              3090.2396              3495.1365
 Red. masses --     1.1054                 1.1054                 1.0746
 Frc consts  --     6.1964                 6.2195                 7.7341
 IR Inten    --    16.3532                88.3874                 2.4220

 - Thermochemistry -
 -------------------
 Temperature   298.150 Kelvin.  Pressure   1.00000 Atm.
 Atom     1 has atomic number  6 and mass  12.00000

 Molecular mass:    85.08915 amu.
 Principal axes and moments of inertia in atomic units:
                           1         2         3
     Eigenvalues --   400.34764 408.48951 714.20584
           X            0.99989  -0.00155   0.01453
           Y            0.00155   1.00000   0.00003
           Z           -0.01453  -0.00000   0.99989
 This molecule is an asymmetric top.
 Rotational symmetry number  1.
 Rotational temperatures (Kelvin)      0.21635     0.21203     0.12127
 Rotational constants (GHZ):           4.50794     4.41808     2.52692
 Zero-point vibrational energy     420062.2 (Joules/Mol)
                                  100.39728 (Kcal/Mol)
 Warning -- explicit consideration of   6 degrees of freedom as
           vibrations may cause significant error
 Vibrational temperatures:    358.51   365.08   579.97   629.19   652.63
          (Kelvin)            792.74  1125.26  1190.48  1193.13  1266.79
                             1274.29  1323.02  1426.19  1521.60  1538.62
                             1545.10  1644.66  1698.73  1699.21  1719.25
                             1874.11  1881.25  1908.69  1962.97  1987.34
                             2012.92  2015.50  2082.03  2156.34  2169.68
                             2177.44  2192.00  2197.92  2216.04  4181.80
                             4192.22  4349.39  4378.10  4378.26  4420.37
                             4424.30  4427.67  4437.97  4446.16  5028.72

 Zero-point correction=                           0.159993 (Hartree/Particle)
 Thermal correction to Energy=                    0.165510
 Thermal correction to Enthalpy=                  0.166455
 Thermal correction to Gibbs Free Energy=         0.131389
 Sum of electronic and zero-point Energies=           -251.744405
 Sum of electronic and thermal Energies=              -251.738888
 Sum of electronic and thermal Enthalpies=            -251.737944
 Sum of electronic and thermal Free Energies=         -251.773010

                     E (Thermal)             CV                S
                      KCal/Mol        Cal/Mol-Kelvin    Cal/Mol-Kelvin
 Total                  103.859             21.825             73.802
 Electronic               0.000              0.000              0.000
 Translational            0.889              2.981             39.237
 Rotational               0.889              2.981             26.260
 Vibrational            102.082             15.864              8.305
 Vibration     1          0.662              1.764              1.736
 Vibration     2          0.665              1.756              1.704
 Vibration     3          0.768              1.463              0.951
 Vibration     4          0.798              1.389              0.835
 Vibration     5          0.812              1.353              0.785
 Vibration     6          0.906              1.138              0.542

 Normal termination of Gaussian 09 at Mon Oct  4 10:28:13 2021.
 Gaussian 09:  AM64L-G09RevA.02 11-Jun-2009

 ----------------------------------------------------------------------
 #p TD(NStates=10, Root=1) b3lyp/6-31G* volume pop=NPA density=current
 Geom=AllCheck Guess=Read
 ----------------------------------------------------------------------

 C1CCCNC1_conf_0
 ---------------
 Redundant internal coordinates taken from checkpoint file:
 C5H11N_f29f_conf_0.chk
 Charge =  0 Multiplicity = 1

                         Standard orientation:
 ---------------------------------------------------------------------
 Center     Atomic      Atomic             Coordinates (Angstroms)
 Number     Number       Type             X           Y           Z
 ---------------------------------------------------------------------
      1          6           0       -0.713705   -1.265984   -0.226409
      2          6           0       -1.459542   -0.002827    0.232043
      3          6           0       -0.718661    1.263336   -0.226164
      4          6           0        0.751063    1.216360    0.206954
      5          7           0        1.380123    0.002535   -0.319568
      6          6           0        0.755529   -1.213464    0.207194
      7          1           0       -0.752212   -1.339775   -1.320968
      8          1           0       -1.190386   -2.166315    0.181575
      9          1           0       -1.527641   -0.003065    1.330277
     10          1           0       -2.489706   -0.004834   -0.145744
     11          1           0       -1.198722    2.161683    0.182200
     12          1           0       -0.757844    1.337249   -1.320709
     13          1           0        0.799090    1.272431    1.314254
     14          1           0        1.292710    2.085300   -0.185126
     15          1           0        2.371856    0.004466   -0.090601
     16          1           0        0.803298   -1.268937    1.314526
     17          1           0        1.300596   -2.080478   -0.184419
 ---------------------------------------------------------------------

 SCF Done:  E(RB3LYP) =  -251.904398688     A.U. after    1 cycles

 Excitation energies and oscillator strengths:

 Excited State   1:      Singlet-A      6.9517 eV  178.35 nm  f=0.0147  <S**2>=0.000
      24 -> 25         0.68835
      24 -> 27        -0.11968
 This state for optimization and/or second-order correction.
 Total Energy, E(TD-HF/TD-KS) =  -251.648927474
 Copying the excited state density for this state as the 1-particle RhoCI density.

 Excited State   2:      Singlet-A      8.0103 eV  154.78 nm  f=0.0101  <S**2>=0.000
      24 -> 25        -0.11271
      24 -> 26         0.68636

 Excited State   3:      Singlet-A      8.3935 eV  147.72 nm  f=0.0663  <S**2>=0.000
      24 -> 25         0.10678
      24 -> 27         0.68793

 Excited State   4:      Singlet-A      8.5744 eV  144.60 nm  f=0.0229  <S**2>=0.000
      24 -> 28         0.70135

 Excited State   5:      Singlet-A      9.0725 eV  136.66 nm  f=0.0235  <S**2>=0.000
      24 -> 29         0.69354

 Excited State   6:      Singlet-A      9.3576 eV  132.50 nm  f=0.0235  <S**2>=0.000
      24 -> 30         0.66721
      24 -> 32         0.17898
      24 -> 36         0.11143

 Excited State   7:      Singlet-A      9.4664 eV  130.97 nm  f=0.0468  <S**2>=0.000
      24 -> 31         0.69500

 Excited State   8:      Singlet-A      9.5891 eV  129.30 nm  f=0.0018  <S**2>=0.000
      23 -> 25         0.69944

 Excited State   9:      Singlet-A      9.6425 eV  128.58 nm  f=0.0005  <S**2>=0.000
      22 -> 25         0.69822

 Excited State  10:      Singlet-A      9.8103 eV  126.38 nm  f=0.0084  <S**2>=0.000
      24 -> 30        -0.19154
      24 -> 32         0.67233

 The electronic state is 1-A.
 Alpha  occ. eigenvalues --  -14.30947 -10.19931 -10.19929 -10.17510 -10.17306
 Alpha  occ. eigenvalues --  -10.17303  -0.89901  -0.77543  -0.74168  -0.62739
 Alpha  occ. eigenvalues --   -0.61078  -0.54384  -0.50219  -0.44569  -0.44228
 Alpha  occ. eigenvalues --   -0.41491  -0.39993  -0.38942  -0.37521  -0.33936
 Alpha  occ. eigenvalues --   -0.32151  -0.30596  -0.30438  -0.21456
 Alpha virt. eigenvalues --    0.08392   0.11822   0.12839   0.13679   0.15748
 Alpha virt. eigenvalues --    0.16752   0.17337   0.18331   0.18660   0.18733
 Alpha virt. eigenvalues --    0.18943   0.22900   0.24125   0.25177   0.26506

 Mulliken atomic charges:
              1
     1  C   -0.245369
     2  C   -0.234568
     3  C   -0.245370
     4  C   -0.120920
     5  N   -0.155020
     6  C   -0.120929
     7  H    0.138543
     8  H    0.111083
     9  H    0.110654
    10  H    0.105243
    11  H    0.111086
    12  H    0.138521
    13  H    0.153303
    14  H    0.069306
    15  H   -0.038205
    16  H    0.153348
    17  H    0.069294
 Sum of Mulliken atomic charges =  -0.00000

 Dipole moment (field-independent basis, Debye):
    X=             -1.1269    Y=             -0.0021    Z=              0.2559  Tot=              1.1556
 Quadrupole moment (field-independent basis, Debye-Ang):
   XX=            -47.7769   YY=            -41.5058   ZZ=            -39.3557
   XY=             -0.0117   XZ=              0.5149   YZ=              0.0012

 Summary of Natural Population Analysis:

                                       Natural Population
                Natural  -----------------------------------------------
    Atom  No    Charge         Core      Valence    Rydberg      Total
 -----------------------------------------------------------------------
      C    1   -0.46709      1.99932     4.45590    0.01187     6.46709
      C    2   -0.46249      1.99933     4.45077    0.01239     6.46249
      C    3   -0.46708      1.99932     4.45590    0.01186     6.46708
      C    4   -0.32762      1.99929     4.30984    0.01849     6.32762
      N    5   -0.19705      1.99931     5.18058    0.01716     7.19705
      C    6   -0.32761      1.99929     4.30982    0.01849     6.32761
      H    7    0.23129      0.00000     0.76429    0.00442     0.76871
      H    8    0.21268      0.00000     0.77480    0.01251     0.78732
      H    9    0.21390      0.00000     0.77634    0.00976     0.78610
      H   10    0.21217      0.00000     0.77562    0.01221     0.78783
      H   11    0.21269      0.00000     0.77480    0.01251     0.78731
      H   12    0.23127      0.00000     0.76430    0.00443     0.76873
      H   13    0.24664      0.00000     0.73209    0.02127     0.75336
      H   14    0.17191      0.00000     0.79108    0.03701     0.82809
      H   15    0.09782      0.00000     0.78281    0.11937     0.90218
      H   16    0.24666      0.00000     0.73209    0.02125     0.75334
      H   17    0.17190      0.00000     0.79109    0.03701     0.82810
 =======================================================================
   * Total *   -0.00000     11.99586    35.62212    0.38202    48.00000

 Normal termination of Gaussian 09 at Mon Oct  4 12:12:23 2021.
