 Gaussian 09, Revision A.02,

 -----------------------------------
 #p opt b3lyp/6-31G* scf=(xqc,tight)
 -----------------------------------

 -------------
 CCCCNC_conf_0
 -------------
 Symbolic Z-matrix:
 Charge =  0 Multiplicity = 1

 SCF Done:  E(RB3LYP) =  -253.104539764     A.U. after   12 cycles
 SCF Done:  E(RB3LYP) =  -253.106560007     A.U. after   11 cycles
 SCF Done:  E(RB3LYP) =  -253.106728979     A.U. after    9 cycles
 SCF Done:  E(RB3LYP) =  -253.106747189     A.U. after    9 cycles
 SCF Done:  E(RB3LYP) =  -253.106751720     A.U. after    8 cycles
 SCF Done:  E(RB3LYP) =  -253.106752308     A.U. after    7 cycles
 Optimization completed.
    -- Stationary point found.
 Normal termination of Gaussian 09 at Mon Oct  4 10:47:41 2021.

 ----------------------------------------------------------------------
 #p freq b3lyp/6-31G* volume NMR pop=NPA density=current Geom=AllCheck
 Guess=Read
 ----------------------------------------------------------------------

 CCCCNC_conf_0
 -------------
 Redundant internal coordinates taken from checkpoint file:
 C5H13N_475c_conf_0.chk
 Charge =  0 Multiplicity = 1

 SCF Done:  E(RB3LYP) =  -253.106752308     A.U. after    1 cycles

  1  C    Isotropic =   173.5552   Anisotropy =    23.6809

  2  C    Isotropic =   166.0343   Anisotropy =    15.9655

  3  C    Isotropic =   154.8125   Anisotropy =    32.1928

  4  C    Isotropic =   136.0268   Anisotropy =    50.4882

  5  N    Isotropic =   216.6465   Anisotropy =    48.2395

  6  C    Isotropic =   152.2805   Anisotropy =    52.9970

  7  H    Isotropic =    31.0653   Anisotropy =     9.6769

  8  H    Isotropic =    31.2061   Anisotropy =     7.8913

  9  H    Isotropic =    31.2817   Anisotropy =     7.8528

 10  H    Isotropic =    30.7849   Anisotropy =     6.7232

 11  H    Isotropic =    30.7433   Anisotropy =     6.5469

 12  H    Isotropic =    30.9383   Anisotropy =     4.2642

 13  H    Isotropic =    30.3945   Anisotropy =     4.7131

 14  H    Isotropic =    29.8033   Anisotropy =     4.1172

 15  H    Isotropic =    29.6196   Anisotropy =     4.5526

 16  H    Isotropic =    32.5701   Anisotropy =    11.1596

 17  H    Isotropic =    29.9737   Anisotropy =     8.1690

 18  H    Isotropic =    29.8815   Anisotropy =     8.4837

 19  H    Isotropic =    29.6804   Anisotropy =     9.1795

  Exact polarizability:  76.169   0.025  56.961  -0.251  -0.695  54.272
 Approx polarizability:  81.697   0.775  80.674   0.046  -1.109  78.658

                     1                      2                      3
                     A                      A                      A
 Frequencies --    75.5595               108.1180               136.7156
 Red. masses --     2.4378                 1.6261                 2.8031
 Frc consts  --     0.0082                 0.0112                 0.0309
 IR Inten    --     0.9727                 1.0009                 0.1655

                     4                      5                      6
                     A                      A                      A
 Frequencies --   149.1402               245.3124               263.4594
 Red. masses --     2.1881                 1.0931                 1.1852
 Frc consts  --     0.0287                 0.0388                 0.0485
 IR Inten    --     1.2721                 0.1460                 1.3442

                     7                      8                      9
                     A                      A                      A
 Frequencies --   305.1584               378.5552               479.3687
 Red. masses --     2.6803                 3.7748                 2.6461
 Frc consts  --     0.1471                 0.3187                 0.3583
 IR Inten    --     0.9212                 1.5375                 2.3805

                    10                     11                     12
                     A                      A                      A
 Frequencies --   751.0850               800.3001               823.0230
 Red. masses --     1.0743                 1.2344                 1.1868
 Frc consts  --     0.3571                 0.4658                 0.4736
 IR Inten    --     2.3330                87.6367                12.3453

                    13                     14                     15
                     A                      A                      A
 Frequencies --   909.9985               962.4348               986.7643
 Red. masses --     1.9157                 1.2103                 1.7785
 Frc consts  --     0.9347                 0.6605                 1.0203
 IR Inten    --     2.0734                 1.7620                 1.9379

                    16                     17                     18
                     A                      A                      A
 Frequencies --  1033.7265              1072.0385              1104.2776
 Red. masses --     3.5195                 2.2727                 1.3963
 Frc consts  --     2.2159                 1.5389                 1.0032
 IR Inten    --     1.2085                 0.9972                12.3549

                    19                     20                     21
                     A                      A                      A
 Frequencies --  1133.1874              1160.0621              1197.1096
 Red. masses --     1.5390                 3.3640                 1.8919
 Frc consts  --     1.1643                 2.6673                 1.5974
 IR Inten    --     0.5417                32.4042                16.8365

                    22                     23                     24
                     A                      A                      A
 Frequencies --  1234.8941              1277.0998              1314.0902
 Red. masses --     1.7955                 1.3769                 1.3741
 Frc consts  --     1.6132                 1.3231                 1.3981
 IR Inten    --     0.9043                 4.6514                 2.5843

                    25                     26                     27
                     A                      A                      A
 Frequencies --  1333.9856              1343.1932              1397.6294
 Red. masses --     1.1433                 1.0778                 1.3877
 Frc consts  --     1.1987                 1.1456                 1.5971
 IR Inten    --     3.2542                 0.4195                 0.8957

                    28                     29                     30
                     A                      A                      A
 Frequencies --  1433.0155              1440.9697              1484.1053
 Red. masses --     1.5564                 1.2432                 1.1883
 Frc consts  --     1.8831                 1.5209                 1.5421
 IR Inten    --    13.2117                 0.8333                 1.0838

                    31                     32                     33
                     A                      A                      A
 Frequencies --  1508.3206              1518.2394              1519.0760
 Red. masses --     1.2189                 1.0681                 1.0597
 Frc consts  --     1.6338                 1.4505                 1.4408
 IR Inten    --    16.1942                 1.5026                 5.6821

                    34                     35                     36
                     A                      A                      A
 Frequencies --  1525.2703              1529.4271              1539.0211
 Red. masses --     1.0677                 1.0413                 1.0757
 Frc consts  --     1.4635                 1.4351                 1.5012
 IR Inten    --     0.6012                 5.6251                 6.8647

                    37                     38                     39
                     A                      A                      A
 Frequencies --  1545.0398              1553.5546              2909.0868
 Red. masses --     1.0591                 1.0851                 1.0739
 Frc consts  --     1.4896                 1.5431                 5.3548
 IR Inten    --     9.3762                 0.4583                74.2121

                    40                     41                     42
                     A                      A                      A
 Frequencies --  2945.6601              3011.6293              3026.5114
 Red. masses --     1.0618                 1.0675                 1.0620
 Frc consts  --     5.4284                 5.7044                 5.7315
 IR Inten    --   118.4745                11.9353                26.9734

                    43                     44                     45
                     A                      A                      A
 Frequencies --  3040.4456              3042.2791              3051.4787
 Red. masses --     1.0769                 1.0417                 1.0968
 Frc consts  --     5.8653                 5.6806                 6.0174
 IR Inten    --    32.6568                47.1046                 9.4226

                    46                     47                     48
                     A                      A                      A
 Frequencies --  3069.9150              3077.1117              3107.2454
 Red. masses --     1.0722                 1.1005                 1.1028
 Frc consts  --     5.9533                 6.1394                 6.2733
 IR Inten    --    43.8871                49.8137                67.9945

                    49                     50                     51
                     A                      A                      A
 Frequencies --  3111.9848              3116.7091              3477.4176
 Red. masses --     1.1020                 1.1023                 1.0737
 Frc consts  --     6.2880                 6.3086                 7.6500
 IR Inten    --    44.2329                36.6267                 2.0260

 - Thermochemistry -
 -------------------
 Temperature   298.150 Kelvin.  Pressure   1.00000 Atm.
 Atom     1 has atomic number  6 and mass  12.00000

 Molecular mass:    87.10480 amu.
 Principal axes and moments of inertia in atomic units:
                           1         2         3
     Eigenvalues --   115.247891545.382061600.47364
           X            0.99997  -0.00733  -0.00263
           Y            0.00723   0.99928  -0.03728
           Z            0.00290   0.03726   0.99930
 This molecule is an asymmetric top.
 Rotational symmetry number  1.
 Rotational temperatures (Kelvin)      0.75154     0.05605     0.05412
 Rotational constants (GHZ):          15.65965     1.16783     1.12763
 Zero-point vibrational energy     469892.0 (Joules/Mol)
                                  112.30687 (Kcal/Mol)
 Warning -- explicit consideration of   9 degrees of freedom as
           vibrations may cause significant error
 Vibrational temperatures:    108.71   155.56   196.70   214.58   352.95
          (Kelvin)            379.06   439.05   544.66   689.70  1080.64
                             1151.45  1184.15  1309.28  1384.73  1419.73
                             1487.30  1542.42  1588.81  1630.40  1669.07
                             1722.37  1776.73  1837.46  1890.68  1919.31
                             1932.55  2010.87  2061.79  2073.23  2135.29
                             2170.13  2184.41  2185.61  2194.52  2200.50
                             2214.31  2222.96  2235.22  4185.52  4238.14
                             4333.06  4354.47  4374.52  4377.16  4390.39
                             4416.92  4427.27  4470.63  4477.45  4484.24
                             5003.22

 Zero-point correction=                           0.178972 (Hartree/Particle)
 Thermal correction to Energy=                    0.187201
 Thermal correction to Enthalpy=                  0.188145
 Thermal correction to Gibbs Free Energy=         0.146586
 Sum of electronic and zero-point Energies=           -252.927780
 Sum of electronic and thermal Energies=              -252.919551
 Sum of electronic and thermal Enthalpies=            -252.918607
 Sum of electronic and thermal Free Energies=         -252.960166

                     E (Thermal)             CV                S
                      KCal/Mol        Cal/Mol-Kelvin    Cal/Mol-Kelvin
 Total                  117.470             28.248             87.469
 Electronic               0.000              0.000              0.000
 Translational            0.889              2.981             39.307
 Rotational               0.889              2.981             27.147
 Vibrational            115.693             22.286             21.016
 Vibration     1          0.599              1.965              4.003
 Vibration     2          0.606              1.943              3.302
 Vibration     3          0.614              1.917              2.849
 Vibration     4          0.618              1.904              2.683
 Vibration     5          0.660              1.771              1.764
 Vibration     6          0.670              1.740              1.639
 Vibration     7          0.696              1.664              1.388
 Vibration     8          0.749              1.516              1.045
 Vibration     9          0.836              1.296              0.712

 Optimization completed.
    -- Stationary point found.
 Normal termination of Gaussian 09 at Mon Oct  4 11:04:42 2021.
 Gaussian 09:  AM64L-G09RevA.02 11-Jun-2009

 ----------------------------------------------------------------------
 #p TD(NStates=10, Root=1) b3lyp/6-31G* volume pop=NPA density=current
 Geom=AllCheck Guess=Read
 ----------------------------------------------------------------------

 CCCCNC_conf_0
 -------------
 Redundant internal coordinates taken from checkpoint file:
 C5H13N_475c_conf_0.chk
 Charge =  0 Multiplicity = 1

                         Standard orientation:
 ---------------------------------------------------------------------
 Center     Atomic      Atomic             Coordinates (Angstroms)
 Number     Number       Type             X           Y           Z
 ---------------------------------------------------------------------
      1          6           0        3.181383   -0.220056   -0.015041
      2          6           0        1.853661    0.542875    0.033598
      3          6           0        0.628706   -0.377272   -0.034596
      4          6           0       -0.700266    0.378315    0.021149
      5          7           0       -1.836646   -0.532073   -0.093019
      6          6           0       -3.124378    0.145850   -0.008644
      7          1           0        4.037243    0.462697    0.035072
      8          1           0        3.271050   -0.800136   -0.941627
      9          1           0        3.265972   -0.922452    0.823425
     10          1           0        1.814123    1.260223   -0.798328
     11          1           0        1.809816    1.142146    0.954158
     12          1           0        0.671266   -1.096533    0.798354
     13          1           0        0.654672   -0.972345   -0.956857
     14          1           0       -0.754743    1.084618   -0.819660
     15          1           0       -0.737202    0.995642    0.942774
     16          1           0       -1.776539   -1.225094    0.651874
     17          1           0       -3.245046    0.805248   -0.876740
     18          1           0       -3.257221    0.766037    0.898840
     19          1           0       -3.931509   -0.593815   -0.038949
 ---------------------------------------------------------------------

 SCF Done:  E(RB3LYP) =  -253.106752308     A.U. after    1 cycles

 Excitation energies and oscillator strengths:

 Excited State   1:      Singlet-A      7.0127 eV  176.80 nm  f=0.0084  <S**2>=0.000
      25 -> 26         0.67032
      25 -> 27        -0.20701
 This state for optimization and/or second-order correction.
 Total Energy, E(TD-HF/TD-KS) =  -252.849040064
 Copying the excited state density for this state as the 1-particle RhoCI density.

 Excited State   2:      Singlet-A      7.6824 eV  161.39 nm  f=0.0087  <S**2>=0.000
      25 -> 26         0.21317
      25 -> 27         0.65099
      25 -> 28        -0.12817

 Excited State   3:      Singlet-A      7.9953 eV  155.07 nm  f=0.0231  <S**2>=0.000
      25 -> 27         0.13028
      25 -> 28         0.68103

 Excited State   4:      Singlet-A      8.7065 eV  142.40 nm  f=0.0357  <S**2>=0.000
      25 -> 29         0.67895
      25 -> 30        -0.13424

 Excited State   5:      Singlet-A      8.7162 eV  142.25 nm  f=0.0264  <S**2>=0.000
      25 -> 29         0.10776
      25 -> 30         0.65239
      25 -> 31         0.17634
      25 -> 32        -0.11056

 Excited State   6:      Singlet-A      9.0531 eV  136.95 nm  f=0.0039  <S**2>=0.000
      25 -> 29        -0.10248
      25 -> 30        -0.17781
      25 -> 31         0.52127
      25 -> 32        -0.40498

 Excited State   7:      Singlet-A      9.2976 eV  133.35 nm  f=0.0064  <S**2>=0.000
      25 -> 31         0.40460
      25 -> 32         0.52061
      25 -> 34         0.20403

 Excited State   8:      Singlet-A      9.7102 eV  127.68 nm  f=0.1465  <S**2>=0.000
      25 -> 32         0.10366
      25 -> 33         0.67266
      25 -> 36        -0.10580

 Excited State   9:      Singlet-A      9.8309 eV  126.12 nm  f=0.0114  <S**2>=0.000
      25 -> 31        -0.12714
      25 -> 32        -0.14806
      25 -> 33         0.10775
      25 -> 34         0.53745
      25 -> 35        -0.30107
      25 -> 36         0.20532

 Excited State  10:      Singlet-A     10.0505 eV  123.36 nm  f=0.0011  <S**2>=0.000
      24 -> 26         0.68371
      24 -> 27         0.13287

 The electronic state is 1-A.
 Alpha  occ. eigenvalues --  -14.31095 -10.19919 -10.19636 -10.17894 -10.17512
 Alpha  occ. eigenvalues --  -10.17160  -0.89342  -0.78459  -0.71603  -0.65328
 Alpha  occ. eigenvalues --   -0.60652  -0.57685  -0.48316  -0.45866  -0.43836
 Alpha  occ. eigenvalues --   -0.43108  -0.40304  -0.39489  -0.37873  -0.36060
 Alpha  occ. eigenvalues --   -0.34692  -0.32997  -0.32194  -0.31926  -0.21441
 Alpha virt. eigenvalues --    0.08901   0.09853   0.11947   0.13544   0.13944
 Alpha virt. eigenvalues --    0.15549   0.16361   0.17447   0.17989   0.19074
 Alpha virt. eigenvalues --    0.19463   0.20174   0.20914   0.22865   0.24010

 Mulliken atomic charges:
              1
     1  C   -0.440006
     2  C   -0.253171
     3  C   -0.241445
     4  C   -0.142254
     5  N   -0.120094
     6  C   -0.309875
     7  H    0.142361
     8  H    0.143065
     9  H    0.147040
    10  H    0.128812
    11  H    0.128669
    12  H    0.094989
    13  H    0.127817
    14  H    0.128983
    15  H    0.127992
    16  H   -0.063920
    17  H    0.138738
    18  H    0.157289
    19  H    0.105009
 Sum of Mulliken atomic charges =  -0.00000

 Dipole moment (field-independent basis, Debye):
    X=             -0.2088    Y=              1.6295    Z=             -1.0514  Tot=              1.9504
 Quadrupole moment (field-independent basis, Debye-Ang):
   XX=            -40.5279   YY=            -44.0999   ZZ=            -43.3913
   XY=             -2.8778   XZ=              1.5552   YZ=              1.9722

 Summary of Natural Population Analysis:

                                       Natural Population
                Natural  -----------------------------------------------
    Atom  No    Charge         Core      Valence    Rydberg      Total
 -----------------------------------------------------------------------
      C    1   -0.67123      1.99947     4.66415    0.00761     6.67123
      C    2   -0.45854      1.99935     4.44799    0.01120     6.45854
      C    3   -0.48744      1.99932     4.47078    0.01734     6.48744
      C    4   -0.34540      1.99932     4.32310    0.02298     6.34540
      N    5   -0.21152      1.99931     5.18914    0.02307     7.21152
      C    6   -0.57658      1.99948     4.55344    0.02366     6.57658
      H    7    0.23200      0.00000     0.76721    0.00080     0.76800
      H    8    0.22531      0.00000     0.77361    0.00108     0.77469
      H    9    0.22718      0.00000     0.77156    0.00126     0.77282
      H   10    0.22465      0.00000     0.77369    0.00166     0.77535
      H   11    0.22257      0.00000     0.77391    0.00353     0.77743
      H   12    0.19972      0.00000     0.77275    0.02754     0.80028
      H   13    0.22743      0.00000     0.76759    0.00498     0.77257
      H   14    0.22186      0.00000     0.76269    0.01544     0.77814
      H   15    0.22687      0.00000     0.74225    0.03088     0.77313
      H   16    0.09547      0.00000     0.78426    0.12027     0.90453
      H   17    0.21695      0.00000     0.76812    0.01493     0.78305
      H   18    0.23922      0.00000     0.73834    0.02244     0.76078
      H   19    0.19150      0.00000     0.78106    0.02744     0.80850
 =======================================================================
   * Total *   -0.00000     11.99624    37.62565    0.37811    50.00000

 Normal termination of Gaussian 09 at Mon Oct  4 12:48:53 2021.
