 Gaussian 09, Revision A.02,

 -----------------------------------
 #p opt b3lyp/6-31G* scf=(xqc,tight)
 -----------------------------------

 -------------------
 Cn1cccc1[Li]_conf_0
 -------------------
 Symbolic Z-matrix:
 Charge =  0 Multiplicity = 1

 SCF Done:  E(RB3LYP) =  -256.367199437     A.U. after   14 cycles
 SCF Done:  E(RB3LYP) =  -256.376545877     A.U. after   12 cycles
 SCF Done:  E(RB3LYP) =  -256.377239277     A.U. after   10 cycles
 SCF Done:  E(RB3LYP) =  -256.377370144     A.U. after   10 cycles
 SCF Done:  E(RB3LYP) =  -256.377486950     A.U. after   10 cycles
 SCF Done:  E(RB3LYP) =  -256.377639853     A.U. after   10 cycles
 SCF Done:  E(RB3LYP) =  -256.377779337     A.U. after   10 cycles
 SCF Done:  E(RB3LYP) =  -256.377794793     A.U. after   10 cycles
 Optimization completed.
    -- Stationary point found.
 Normal termination of Gaussian 09 at Sat Oct  2 20:01:59 2021.

 ----------------------------------------------------------------------
 #p freq b3lyp/6-31G* volume NMR pop=NPA density=current Geom=AllCheck
 Guess=Read
 ----------------------------------------------------------------------

 Cn1cccc1[Li]_conf_0
 -------------------
 Redundant internal coordinates taken from checkpoint file:
 C5H6LiN_68da_conf_0.chk
 Charge =  0 Multiplicity = 1

 SCF Done:  E(RB3LYP) =  -256.377794793     A.U. after    1 cycles

  1  C    Isotropic =   148.9605   Anisotropy =    59.4814

  2  N    Isotropic =    95.8259   Anisotropy =   113.5568

  3  C    Isotropic =    71.5908   Anisotropy =    90.8379

  4  C    Isotropic =    89.3685   Anisotropy =   108.6774

  5  C    Isotropic =    69.6680   Anisotropy =   115.1897

  6  C    Isotropic =    45.3318   Anisotropy =   151.2737

  7  Li   Isotropic =    90.5874   Anisotropy =    15.0392

  8  H    Isotropic =    29.0583   Anisotropy =     7.1503

  9  H    Isotropic =    28.5133   Anisotropy =     8.2521

 10  H    Isotropic =    28.5141   Anisotropy =     8.2505

 11  H    Isotropic =    25.8804   Anisotropy =     3.9163

 12  H    Isotropic =    26.7769   Anisotropy =     2.3914

 13  H    Isotropic =    25.9424   Anisotropy =     2.2100

  Exact polarizability:  81.987   8.280 100.403   0.005   0.029  47.889
 Approx polarizability: 121.976  11.826 143.709   0.004   0.002  62.123

 ******    1 imaginary frequencies (negative Signs) ******

                     1                      2                      3
                     A                      A                      A
 Frequencies --   -71.6479               104.3044               115.3730
 Red. masses --     1.1519                 5.8888                 5.4569
 Frc consts  --     0.0035                 0.0377                 0.0428
 IR Inten    --     0.2587                68.9060                65.9601

                     4                      5                      6
                     A                      A                      A
 Frequencies --   217.0061               372.0549               571.3133
 Red. masses --     2.5813                 2.8396                 6.2771
 Frc consts  --     0.0716                 0.2316                 1.2071
 IR Inten    --     8.0881                 3.9916                70.5678

                     7                      8                      9
                     A                      A                      A
 Frequencies --   609.6974               636.7530               686.8799
 Red. masses --     4.0164                 6.8275                 4.5778
 Frc consts  --     0.8797                 1.6310                 1.2725
 IR Inten    --     3.1291                 0.9084                11.2512

                    10                     11                     12
                     A                      A                      A
 Frequencies --   698.6175               756.8153               824.7912
 Red. masses --     1.2323                 1.1997                 1.2195
 Frc consts  --     0.3543                 0.4049                 0.4888
 IR Inten    --    50.6042                19.2522                 2.2661

                    13                     14                     15
                     A                      A                      A
 Frequencies --   889.9368              1000.0617              1074.0974
 Red. masses --     6.1268                 1.8533                 1.5583
 Frc consts  --     2.8589                 1.0921                 1.0592
 IR Inten    --     2.7267                 4.8737                13.6483

                    16                     17                     18
                     A                      A                      A
 Frequencies --  1097.1198              1115.0701              1154.2533
 Red. masses --     2.9157                 1.2992                 1.2968
 Frc consts  --     2.0678                 0.9518                 1.0180
 IR Inten    --     2.9391                19.4467                 0.2365

                    19                     20                     21
                     A                      A                      A
 Frequencies --  1207.8338              1319.7281              1338.2638
 Red. masses --     1.8887                 3.5684                 3.4464
 Frc consts  --     1.6234                 3.6617                 3.6366
 IR Inten    --     5.1998                36.1529                 1.1917

                    22                     23                     24
                     A                      A                      A
 Frequencies --  1413.7121              1450.3661              1482.0984
 Red. masses --     3.8847                 2.9442                 1.3182
 Frc consts  --     4.5743                 3.6489                 1.7060
 IR Inten    --    25.2716                23.1584                 3.0327

                    25                     26                     27
                     A                      A                      A
 Frequencies --  1509.2183              1546.3357              1560.5707
 Red. masses --     1.0458                 1.0791                 3.5698
 Frc consts  --     1.4035                 1.5203                 5.1223
 IR Inten    --     4.9661                 4.4385                17.6155

                    28                     29                     30
                     A                      A                      A
 Frequencies --  3030.9411              3078.2916              3127.5976
 Red. masses --     1.0351                 1.1048                 1.0998
 Frc consts  --     5.6028                 6.1679                 6.3385
 IR Inten    --    79.0009                44.8075                20.4970

                    31                     32                     33
                     A                      A                      A
 Frequencies --  3176.0528              3229.1293              3250.9754
 Red. masses --     1.0909                 1.0889                 1.1036
 Frc consts  --     6.4836                 6.6895                 6.8723
 IR Inten    --    35.4118                16.3333                23.0417

 - Thermochemistry -
 -------------------
 Temperature   298.150 Kelvin.  Pressure   1.00000 Atm.
 Atom     1 has atomic number  6 and mass  12.00000

 Molecular mass:    87.06603 amu.
 Principal axes and moments of inertia in atomic units:
                           1         2         3
     Eigenvalues --   418.49262 503.65294 910.75101
           X            0.99718  -0.07508   0.00000
           Y            0.07508   0.99718   0.00001
           Z           -0.00000  -0.00001   1.00000
 This molecule is an asymmetric top.
 Rotational symmetry number  1.
 Rotational temperatures (Kelvin)      0.20697     0.17197     0.09510
 Rotational constants (GHZ):           4.31248     3.58330     1.98160
    1 imaginary frequencies ignored.
 Zero-point vibrational energy     261056.6 (Joules/Mol)
                                   62.39403 (Kcal/Mol)
 Warning -- explicit consideration of   6 degrees of freedom as
           vibrations may cause significant error
 Vibrational temperatures:    150.07   166.00   312.22   535.30   821.99
          (Kelvin)            877.22   916.14   988.27  1005.15  1088.89
                             1186.69  1280.42  1438.86  1545.38  1578.51
                             1604.34  1660.71  1737.80  1898.79  1925.46
                             2034.01  2086.75  2132.41  2171.43  2224.83
                             2245.31  4360.84  4428.97  4499.91  4569.63
                             4645.99  4677.42

 Zero-point correction=                           0.099431 (Hartree/Particle)
 Thermal correction to Energy=                    0.105691
 Thermal correction to Enthalpy=                  0.106635
 Thermal correction to Gibbs Free Energy=         0.069245
 Sum of electronic and zero-point Energies=           -256.278364
 Sum of electronic and thermal Energies=              -256.272104
 Sum of electronic and thermal Enthalpies=            -256.271160
 Sum of electronic and thermal Free Energies=         -256.308550

                     E (Thermal)             CV                S
                      KCal/Mol        Cal/Mol-Kelvin    Cal/Mol-Kelvin
 Total                   66.322             22.186             78.694
 Electronic               0.000              0.000              0.000
 Translational            0.889              2.981             39.305
 Rotational               0.889              2.981             26.754
 Vibrational             64.545             16.225             12.635
 Vibration     1          0.605              1.946              3.372
 Vibration     2          0.608              1.937              3.176
 Vibration     3          0.646              1.815              1.984
 Vibration     4          0.744              1.530              1.071
 Vibration     5          0.927              1.093              0.502
 Vibration     6          0.969              1.011              0.433

 Optimization completed.
    -- Stationary point found.
 Normal termination of Gaussian 09 at Sat Oct  2 20:31:47 2021.
 Gaussian 09:  AM64L-G09RevA.02 11-Jun-2009

 ----------------------------------------------------------------------
 #p TD(NStates=10, Root=1) b3lyp/6-31G* volume pop=NPA density=current
 Geom=AllCheck Guess=Read
 ----------------------------------------------------------------------

 Cn1cccc1[Li]_conf_0
 -------------------
 Redundant internal coordinates taken from checkpoint file:
 C5H6LiN_68da_conf_0.chk
 Charge =  0 Multiplicity = 1

                         Standard orientation:
 ---------------------------------------------------------------------
 Center     Atomic      Atomic             Coordinates (Angstroms)
 Number     Number       Type             X           Y           Z
 ---------------------------------------------------------------------
      1          6           0        2.059323   -0.195379    0.000001
      2          7           0        0.612887   -0.152966   -0.000057
      3          6           0       -0.188412   -1.272812    0.000145
      4          6           0       -1.503865   -0.861243   -0.000210
      5          6           0       -1.471153    0.561326    0.000206
      6          6           0       -0.141270    1.017117   -0.000071
      7          3           0        0.108853    2.929062   -0.000084
      8          1           0        2.397199   -1.235975   -0.000183
      9          1           0        2.469737    0.298886    0.889784
     10          1           0        2.469822    0.299235   -0.889547
     11          1           0        0.241131   -2.266927    0.000235
     12          1           0       -2.372692   -1.508257   -0.000394
     13          1           0       -2.349698    1.202557    0.000332
 ---------------------------------------------------------------------

 SCF Done:  E(RB3LYP) =  -256.377794793     A.U. after    1 cycles

 Excitation energies and oscillator strengths:

 Excited State   1:      Singlet-A      2.1494 eV  576.82 nm  f=0.0115  <S**2>=0.000
      23 -> 24         0.70511
 This state for optimization and/or second-order correction.
 Total Energy, E(TD-HF/TD-KS) =  -256.298804718
 Copying the excited state density for this state as the 1-particle RhoCI density.

 Excited State   2:      Singlet-A      3.1104 eV  398.61 nm  f=0.0009  <S**2>=0.000
      22 -> 24         0.70438

 Excited State   3:      Singlet-A      3.5071 eV  353.52 nm  f=0.0286  <S**2>=0.000
      21 -> 24         0.68214
      23 -> 25         0.17274

 Excited State   4:      Singlet-A      3.6414 eV  340.49 nm  f=0.0001  <S**2>=0.000
      23 -> 26         0.70374

 Excited State   5:      Singlet-A      3.8793 eV  319.61 nm  f=0.2121  <S**2>=0.000
      21 -> 24        -0.17198
      23 -> 25         0.67984

 Excited State   6:      Singlet-A      4.5319 eV  273.58 nm  f=0.0001  <S**2>=0.000
      22 -> 26         0.70456

 Excited State   7:      Singlet-A      4.5360 eV  273.34 nm  f=0.0092  <S**2>=0.000
      21 -> 26         0.13086
      22 -> 25         0.69039

 Excited State   8:      Singlet-A      4.8274 eV  256.83 nm  f=0.0604  <S**2>=0.000
      21 -> 25         0.69757
      23 -> 27        -0.10788

 Excited State   9:      Singlet-A      4.9180 eV  252.10 nm  f=0.0918  <S**2>=0.000
      21 -> 26         0.68824
      22 -> 25        -0.12283

 Excited State  10:      Singlet-A      5.1137 eV  242.45 nm  f=0.0370  <S**2>=0.000
      21 -> 25         0.10854
      23 -> 27         0.69614

 The electronic state is 1-A.
 Alpha  occ. eigenvalues --  -14.33046 -10.19720 -10.15934 -10.12365 -10.12135
 Alpha  occ. eigenvalues --  -10.11898  -1.99758  -0.92355  -0.75157  -0.65542
 Alpha  occ. eigenvalues --   -0.64598  -0.51913  -0.49663  -0.45876  -0.42394
 Alpha  occ. eigenvalues --   -0.39532  -0.36723  -0.33915  -0.32655  -0.32299
 Alpha  occ. eigenvalues --   -0.20612  -0.18547  -0.15713
 Alpha virt. eigenvalues --   -0.04701   0.00597   0.00796   0.06278   0.08814
 Alpha virt. eigenvalues --    0.11328   0.11719   0.12195   0.14104   0.14782
 Alpha virt. eigenvalues --    0.17403   0.19097   0.20570   0.20826   0.21376

 Mulliken atomic charges:
              1
     1  C   -0.328283
     2  N   -0.409574
     3  C    0.108485
     4  C   -0.146072
     5  C   -0.164845
     6  C    0.150684
     7  Li  -0.409812
     8  H    0.167216
     9  H    0.215426
    10  H    0.216801
    11  H    0.212609
    12  H    0.175558
    13  H    0.211806
 Sum of Mulliken atomic charges =  -0.00000

 Dipole moment (field-independent basis, Debye):
    X=             -0.9516    Y=            -12.9031    Z=              0.2876  Tot=             12.9414
 Quadrupole moment (field-independent basis, Debye-Ang):
   XX=            -35.7673   YY=            -89.7130   ZZ=            -45.4219
   XY=             -6.4998   XZ=              0.1260   YZ=              1.2309

 Summary of Natural Population Analysis:

                                       Natural Population
                Natural  -----------------------------------------------
    Atom  No    Charge         Core      Valence    Rydberg      Total
 -----------------------------------------------------------------------
      C    1   -0.46664      1.99947     4.45534    0.01183     6.46664
      N    2   -0.44248      1.99936     5.43350    0.00963     7.44248
      C    3    0.13335      1.99912     3.85013    0.01740     5.86665
      C    4   -0.28723      1.99910     4.27480    0.01334     6.28723
      C    5   -0.27598      1.99920     4.26738    0.00940     6.27598
      C    6    0.28230      1.99914     3.71046    0.00810     5.71770
     Li    7   -0.62682      2.00451     1.61610    0.00621     3.62682
      H    8    0.23378      0.00000     0.76559    0.00063     0.76622
      H    9    0.25718      0.00000     0.74222    0.00060     0.74282
      H   10    0.25820      0.00000     0.74120    0.00060     0.74180
      H   11    0.24815      0.00000     0.75185    0.00000     0.75185
      H   12    0.26369      0.00000     0.73631    0.00000     0.73631
      H   13    0.25819      0.00000     0.74181    0.00000     0.74181
 =======================================================================
   * Total *   -0.16431     13.99990    32.08668    0.07773    46.16431

 Normal termination of Gaussian 09 at Sat Oct  2 22:03:09 2021.
