 Gaussian 09, Revision A.02,

 -----------------------------------
 #p opt b3lyp/6-31G* scf=(xqc,tight)
 -----------------------------------

 ----------------
 Cc1scnc1C_conf_0
 ----------------
 Symbolic Z-matrix:
 Charge =  0 Multiplicity = 1

 SCF Done:  E(RB3LYP) =  -647.682880960     A.U. after   16 cycles
 SCF Done:  E(RB3LYP) =  -647.684698095     A.U. after   13 cycles
 SCF Done:  E(RB3LYP) =  -647.684938559     A.U. after   12 cycles
 SCF Done:  E(RB3LYP) =  -647.684957579     A.U. after   11 cycles
 SCF Done:  E(RB3LYP) =  -647.684964314     A.U. after   11 cycles
 SCF Done:  E(RB3LYP) =  -647.684969438     A.U. after    9 cycles
 SCF Done:  E(RB3LYP) =  -647.684969643     A.U. after    8 cycles
 SCF Done:  E(RB3LYP) =  -647.684969840     A.U. after    8 cycles
 SCF Done:  E(RB3LYP) =  -647.684969864     A.U. after    8 cycles
 SCF Done:  E(RB3LYP) =  -647.684970312     A.U. after    8 cycles
 SCF Done:  E(RB3LYP) =  -647.673247327     A.U. after   14 cycles
 SCF Done:  E(RB3LYP) =  -647.684970362     A.U. after   13 cycles
 Optimization completed.
    -- Stationary point found.
 Normal termination of Gaussian 09 at Mon Oct  4 21:50:09 2021.

 ----------------------------------------------------------------------
 #p freq b3lyp/6-31G* volume NMR pop=NPA density=current Geom=AllCheck
 Guess=Read
 ----------------------------------------------------------------------

 Cc1scnc1C_conf_0
 ----------------
 Redundant internal coordinates taken from checkpoint file:
 C5H7NS_8233_conf_0.chk
 Charge =  0 Multiplicity = 1

 SCF Done:  E(RB3LYP) =  -647.684970362     A.U. after    1 cycles

  1  C    Isotropic =   177.1368   Anisotropy =    18.9716

  2  C    Isotropic =    60.6041   Anisotropy =    99.8649

  3  S    Isotropic =   237.5960   Anisotropy =   185.8228

  4  C    Isotropic =    47.3113   Anisotropy =   106.9355

  5  N    Isotropic =   -76.4559   Anisotropy =   401.3521

  6  C    Isotropic =    48.1636   Anisotropy =    99.7249

  7  C    Isotropic =   173.9996   Anisotropy =    23.9557

  8  H    Isotropic =    29.9314   Anisotropy =     8.4728

  9  H    Isotropic =    29.9621   Anisotropy =     8.5869

 10  H    Isotropic =    29.9617   Anisotropy =     8.4280

 11  H    Isotropic =    24.3672   Anisotropy =     5.5094

 12  H    Isotropic =    29.5508   Anisotropy =     8.4215

 13  H    Isotropic =    30.0664   Anisotropy =     7.2451

 14  H    Isotropic =    30.0698   Anisotropy =     7.3385

  Exact polarizability:  87.252  -0.227  80.539  -0.026   0.028  41.970
 Approx polarizability: 136.444   6.126 140.004  -0.012   0.029  63.979

 ******    2 imaginary frequencies (negative Signs) ******

                     1                      2                      3
                     A                      A                      A
 Frequencies --   -97.5789               -46.7696               193.1781
 Red. masses --     1.0227                 1.0280                 4.0261
 Frc consts  --     0.0057                 0.0013                 0.0885
 IR Inten    --     0.0745                 0.0010                 0.4183

                     4                      5                      6
                     A                      A                      A
 Frequencies --   240.2923               261.2684               377.9822
 Red. masses --     2.5335                 3.2848                 3.4424
 Frc consts  --     0.0862                 0.1321                 0.2898
 IR Inten    --     0.1937                 4.6082                 2.1823

                     7                      8                      9
                     A                      A                      A
 Frequencies --   510.5524               531.1231               634.0499
 Red. masses --     5.0378                 6.7401                 4.5750
 Frc consts  --     0.7737                 1.1202                 1.0837
 IR Inten    --     0.4078                 2.1031                 4.8637

                    10                     11                     12
                     A                      A                      A
 Frequencies --   658.1958               699.1355               782.0279
 Red. masses --     5.3194                 8.0675                 1.1983
 Frc consts  --     1.3578                 2.3233                 0.4318
 IR Inten    --     0.6047                 0.4899                20.8131

                    13                     14                     15
                     A                      A                      A
 Frequencies --   824.3316               907.1444               996.2926
 Red. masses --     4.4423                 2.9316                 1.5210
 Frc consts  --     1.7785                 1.4214                 0.8895
 IR Inten    --    11.9993                32.8458                 2.1655

                    16                     17                     18
                     A                      A                      A
 Frequencies --  1051.7723              1079.3714              1129.1421
 Red. masses --     1.3513                 1.4974                 1.9420
 Frc consts  --     0.8808                 1.0279                 1.4588
 IR Inten    --     1.2533                 0.7424                 7.5375

                    19                     20                     21
                     A                      A                      A
 Frequencies --  1192.8592              1279.6454              1363.8013
 Red. masses --     3.6110                 1.5715                 3.2508
 Frc consts  --     3.0273                 1.5161                 3.5624
 IR Inten    --     7.8887                 3.7533                 4.8036

                    22                     23                     24
                     A                      A                      A
 Frequencies --  1435.5830              1447.6108              1487.9276
 Red. masses --     1.3656                 1.2131                 6.8181
 Frc consts  --     1.6582                 1.4978                 8.8936
 IR Inten    --     3.7281                 0.0882                48.3035

                    25                     26                     27
                     A                      A                      A
 Frequencies --  1509.2979              1514.7504              1518.3289
 Red. masses --     1.0443                 1.1051                 1.0437
 Frc consts  --     1.4017                 1.4940                 1.4176
 IR Inten    --     0.8551                 9.2702                14.7515

                    28                     29                     30
                     A                      A                      A
 Frequencies --  1521.7654              1588.1304              3040.6930
 Red. masses --     1.0785                 6.5165                 1.0384
 Frc consts  --     1.4715                 9.6836                 5.6567
 IR Inten    --     3.3821                15.0613                36.7779

                    31                     32                     33
                     A                      A                      A
 Frequencies --  3042.9859              3087.3908              3092.4333
 Red. masses --     1.0397                 1.1015                 1.1013
 Frc consts  --     5.6723                 6.1863                 6.2051
 IR Inten    --    16.8951                37.3047                 0.0269

                    34                     35                     36
                     A                      A                      A
 Frequencies --  3133.9527              3152.0482              3244.2284
 Red. masses --     1.0992                 1.0984                 1.0936
 Frc consts  --     6.3606                 6.4297                 6.7818
 IR Inten    --    10.3643                 7.8155                 1.7431

 - Thermochemistry -
 -------------------
 Temperature   298.150 Kelvin.  Pressure   1.00000 Atm.
 Atom     1 has atomic number  6 and mass  12.00000

 Molecular mass:   113.02992 amu.
 Principal axes and moments of inertia in atomic units:
                           1         2         3
     Eigenvalues --   563.51244 746.023161287.06286
           X            0.99634  -0.08552  -0.00001
           Y            0.08552   0.99634   0.00002
           Z            0.00001  -0.00002   1.00000
 This molecule is an asymmetric top.
 Rotational symmetry number  1.
 Warning -- assumption of classical behavior for rotation
           may cause significant error
 Rotational temperatures (Kelvin)      0.15370     0.11610     0.06730
 Rotational constants (GHZ):           3.20266     2.41915     1.40222
    2 imaginary frequencies ignored.
 Zero-point vibrational energy     290269.6 (Joules/Mol)
                                   69.37611 (Kcal/Mol)
 Warning -- explicit consideration of   6 degrees of freedom as
           vibrations may cause significant error
 Vibrational temperatures:    277.94   345.73   375.91   543.83   734.57
          (Kelvin)            764.17   912.26   947.00  1005.90  1125.16
                             1186.03  1305.18  1433.44  1513.26  1552.97
                             1624.58  1716.26  1841.12  1962.20  2065.48
                             2082.79  2140.79  2171.54  2179.39  2184.53
                             2189.48  2284.96  4374.87  4378.17  4442.06
                             4449.32  4509.05  4535.09  4667.72

 Zero-point correction=                           0.110558 (Hartree/Particle)
 Thermal correction to Energy=                    0.116471
 Thermal correction to Enthalpy=                  0.117415
 Thermal correction to Gibbs Free Energy=         0.080416
 Sum of electronic and zero-point Energies=           -647.574412
 Sum of electronic and thermal Energies=              -647.568499
 Sum of electronic and thermal Enthalpies=            -647.567555
 Sum of electronic and thermal Free Energies=         -647.604555

                     E (Thermal)             CV                S
                      KCal/Mol        Cal/Mol-Kelvin    Cal/Mol-Kelvin
 Total                   73.087             22.091             77.872
 Electronic               0.000              0.000              0.000
 Translational            0.889              2.981             40.083
 Rotational               0.889              2.981             27.783
 Vibrational             71.309             16.130             10.005
 Vibration     1          0.635              1.849              2.197
 Vibration     2          0.657              1.779              1.801
 Vibration     3          0.669              1.744              1.653
 Vibration     4          0.748              1.517              1.047
 Vibration     5          0.866              1.227              0.632
 Vibration     6          0.886              1.181              0.585

 Normal termination of Gaussian 09 at Mon Oct  4 22:00:46 2021.
 Gaussian 09:  AM64L-G09RevA.02 11-Jun-2009

 ----------------------------------------------------------------------
 #p TD(NStates=10, Root=1) b3lyp/6-31G* volume pop=NPA density=current
 Geom=AllCheck Guess=Read
 ----------------------------------------------------------------------

 Cc1scnc1C_conf_0
 ----------------
 Redundant internal coordinates taken from checkpoint file:
 C5H7NS_8233_conf_0.chk
 Charge =  0 Multiplicity = 1

                         Standard orientation:
 ---------------------------------------------------------------------
 Center     Atomic      Atomic             Coordinates (Angstroms)
 Number     Number       Type             X           Y           Z
 ---------------------------------------------------------------------
      1          6           0       -0.899457    2.012672    0.000413
      2          6           0       -0.200872    0.683301   -0.000741
      3         16           0        1.536648    0.531286   -0.000153
      4          6           0        1.354192   -1.204494    0.000520
      5          7           0        0.125437   -1.626370    0.000097
      6          6           0       -0.765236   -0.569123   -0.000309
      7          6           0       -2.243135   -0.850339   -0.000041
      8          1           0       -0.192817    2.846681   -0.027740
      9          1           0       -1.518886    2.133409    0.898360
     10          1           0       -1.562279    2.110195   -0.868713
     11          1           0        2.221528   -1.854501    0.000676
     12          1           0       -2.408210   -1.930120   -0.010591
     13          1           0       -2.740153   -0.417747   -0.877643
     14          1           0       -2.736556   -0.435997    0.888373
 ---------------------------------------------------------------------

 SCF Done:  E(RB3LYP) =  -647.684970362     A.U. after    3 cycles

 Excitation energies and oscillator strengths:

 Excited State   1:      Singlet-A      5.3682 eV  230.96 nm  f=0.0005  <S**2>=0.000
      29 -> 31         0.70404
 This state for optimization and/or second-order correction.
 Total Energy, E(TD-HF/TD-KS) =  -647.487691429
 Copying the excited state density for this state as the 1-particle RhoCI density.

 Excited State   2:      Singlet-A      5.3919 eV  229.95 nm  f=0.0963  <S**2>=0.000
      30 -> 31         0.68088

 Excited State   3:      Singlet-A      5.4616 eV  227.01 nm  f=0.0004  <S**2>=0.000
      30 -> 32         0.70432

 Excited State   4:      Singlet-A      6.2576 eV  198.13 nm  f=0.0473  <S**2>=0.000
      28 -> 31         0.60342
      29 -> 32         0.28288
      30 -> 31         0.11107
      30 -> 33        -0.17504

 Excited State   5:      Singlet-A      6.5490 eV  189.32 nm  f=0.0000  <S**2>=0.000
      28 -> 32         0.70363

 Excited State   6:      Singlet-A      6.7686 eV  183.18 nm  f=0.0057  <S**2>=0.000
      28 -> 31        -0.16243
      29 -> 32         0.57844
      30 -> 33         0.34990

 Excited State   7:      Singlet-A      7.3545 eV  168.58 nm  f=0.0055  <S**2>=0.000
      29 -> 33         0.70131

 Excited State   8:      Singlet-A      7.4903 eV  165.53 nm  f=0.2514  <S**2>=0.000
      27 -> 32        -0.14615
      28 -> 31         0.25260
      28 -> 33        -0.16710
      29 -> 32        -0.22900
      30 -> 33         0.55111

 Excited State   9:      Singlet-A      7.6619 eV  161.82 nm  f=0.0055  <S**2>=0.000
      27 -> 31         0.65969
      30 -> 34        -0.21422

 Excited State  10:      Singlet-A      7.7096 eV  160.82 nm  f=0.0024  <S**2>=0.000
      27 -> 31         0.23117
      30 -> 34         0.63657
      30 -> 35        -0.18904

 The electronic state is 1-A.
 Alpha  occ. eigenvalues --  -88.90912 -14.32949 -10.24228 -10.21997 -10.21611
 Alpha  occ. eigenvalues --  -10.20097 -10.18386  -7.97110  -5.93479  -5.93138
 Alpha  occ. eigenvalues --   -5.92839  -0.95519  -0.80679  -0.77348  -0.71701
 Alpha  occ. eigenvalues --   -0.66611  -0.57907  -0.53232  -0.47952  -0.44353
 Alpha  occ. eigenvalues --   -0.43053  -0.41014  -0.40968  -0.39037  -0.38338
 Alpha  occ. eigenvalues --   -0.37882  -0.34487  -0.27411  -0.26614  -0.22843
 Alpha virt. eigenvalues --   -0.01783   0.01675   0.05587   0.09230   0.10937
 Alpha virt. eigenvalues --    0.13483   0.13905   0.15520   0.16729   0.16839
 Alpha virt. eigenvalues --    0.20274   0.22430   0.25892   0.26319   0.28804

 Mulliken atomic charges:
              1
     1  C   -0.486329
     2  C   -0.208486
     3  S    0.256969
     4  C   -0.224600
     5  N   -0.290177
     6  C    0.316874
     7  C   -0.520251
     8  H    0.160577
     9  H    0.160857
    10  H    0.160875
    11  H    0.180241
    12  H    0.163639
    13  H    0.165014
    14  H    0.164795
 Sum of Mulliken atomic charges =   0.00000

 Dipole moment (field-independent basis, Debye):
    X=             -1.0088    Y=             -0.2080    Z=              0.0045  Tot=              1.0301
 Quadrupole moment (field-independent basis, Debye-Ang):
   XX=            -45.9434   YY=            -45.1217   ZZ=            -51.6992
   XY=             -1.5482   XZ=              0.0048   YZ=             -0.0024

 Summary of Natural Population Analysis:

                                       Natural Population
                Natural  -----------------------------------------------
    Atom  No    Charge         Core      Valence    Rydberg      Total
 -----------------------------------------------------------------------
      C    1   -0.68981      1.99935     4.68121    0.00924     6.68981
      C    2   -0.33496      1.99882     4.31921    0.01693     6.33496
      S    3    0.42197      9.99897     5.52533    0.05373    15.57803
      C    4   -0.37527      1.99933     4.34750    0.02844     6.37527
      N    5   -0.11247      1.99882     5.09998    0.01367     7.11247
      C    6    0.08178      1.99877     3.89896    0.02049     5.91822
      C    7   -0.69683      1.99937     4.69016    0.00729     6.69683
      H    8    0.24749      0.00000     0.75169    0.00082     0.75251
      H    9    0.23719      0.00000     0.76122    0.00159     0.76281
      H   10    0.23771      0.00000     0.76080    0.00150     0.76229
      H   11    0.25336      0.00000     0.74615    0.00049     0.74664
      H   12    0.24641      0.00000     0.75287    0.00072     0.75359
      H   13    0.24183      0.00000     0.75678    0.00140     0.75817
      H   14    0.24162      0.00000     0.75697    0.00141     0.75838
 =======================================================================
   * Total *   -0.00000     21.99344    37.84884    0.15772    60.00000

 Normal termination of Gaussian 09 at Mon Oct  4 22:29:59 2021.
