 Gaussian 09, Revision A.02,

 -----------------------------------
 #p opt b3lyp/6-31G* scf=(xqc,tight)
 -----------------------------------

 --------------------------
 [O-]/C(=C\C(=O)C)/C_conf_0
 --------------------------
 Symbolic Z-matrix:
 Charge = -1 Multiplicity = 1

 SCF Done:  E(RB3LYP) =  -345.214010279     A.U. after   16 cycles
 SCF Done:  E(RB3LYP) =  -345.223828215     A.U. after   16 cycles
 SCF Done:  E(RB3LYP) =  -345.224888563     A.U. after   13 cycles
 SCF Done:  E(RB3LYP) =  -345.225003545     A.U. after   12 cycles
 SCF Done:  E(RB3LYP) =  -345.225014440     A.U. after   10 cycles
 SCF Done:  E(RB3LYP) =  -345.225016999     A.U. after    9 cycles
 SCF Done:  E(RB3LYP) =  -345.225018346     A.U. after   10 cycles
 SCF Done:  E(RB3LYP) =  -345.225023352     A.U. after    9 cycles
 SCF Done:  E(RB3LYP) =  -345.225025982     A.U. after   10 cycles
 SCF Done:  E(RB3LYP) =  -345.225026451     A.U. after    8 cycles
 Optimization completed.
    -- Stationary point found.
 Normal termination of Gaussian 09 at Fri Oct  1 19:13:14 2021.

 ----------------------------------------------------------------------
 #p freq b3lyp/6-31G* volume NMR pop=NPA density=current Geom=AllCheck
 Guess=Read
 ----------------------------------------------------------------------

 [O-]/C(=C\C(=O)C)/C_conf_0
 --------------------------
 Redundant internal coordinates taken from checkpoint file:
 C5H7O2-_66e6_conf_0.chk
 Charge = -1 Multiplicity = 1

 SCF Done:  E(RB3LYP) =  -345.225026451     A.U. after    1 cycles

  1  O    Isotropic =   -50.4177   Anisotropy =   651.6035

  2  C    Isotropic =    21.7899   Anisotropy =   131.0431

  3  C    Isotropic =    95.6098   Anisotropy =    61.6561

  4  C    Isotropic =    15.1312   Anisotropy =   148.1377

  5  O    Isotropic =  -110.3316   Anisotropy =   616.7858

  6  C    Isotropic =   158.0706   Anisotropy =    35.8899

  7  C    Isotropic =   160.3163   Anisotropy =    40.7564

  8  H    Isotropic =    28.0747   Anisotropy =     7.3317

  9  H    Isotropic =    29.8754   Anisotropy =     3.4495

 10  H    Isotropic =    30.0253   Anisotropy =     3.6590

 11  H    Isotropic =    31.5922   Anisotropy =     4.8539

 12  H    Isotropic =    31.0315   Anisotropy =     4.7544

 13  H    Isotropic =    31.0734   Anisotropy =     4.8656

 14  H    Isotropic =    31.0423   Anisotropy =     4.7688

  Exact polarizability:  93.683   4.261  63.282   0.059   0.034  36.865
 Approx polarizability: 143.079  30.577 105.958   0.099   0.034  53.038

                     1                      2                      3
                     A                      A                      A
 Frequencies --    55.3064                99.0720               102.7368
 Red. masses --     1.0512                 1.4186                 2.2882
 Frc consts  --     0.0019                 0.0082                 0.0142
 IR Inten    --     0.0190                 3.3987                 5.1655

                     4                      5                      6
                     A                      A                      A
 Frequencies --   171.4373               205.2479               352.9267
 Red. masses --     3.4648                 4.2052                 3.0133
 Frc consts  --     0.0600                 0.1044                 0.2211
 IR Inten    --     0.3923                11.6812                 0.4408

                     7                      8                      9
                     A                      A                      A
 Frequencies --   399.3221               529.9249               568.7505
 Red. masses --     5.7882                 3.7395                 2.3072
 Frc consts  --     0.5438                 0.6187                 0.4397
 IR Inten    --     0.2553                15.6888                 0.1216

                    10                     11                     12
                     A                      A                      A
 Frequencies --   607.0960               639.0834               788.5000
 Red. masses --     3.6681                 2.6721                 1.2192
 Frc consts  --     0.7965                 0.6430                 0.4466
 IR Inten    --     9.0967                 6.2555                20.0644

                    13                     14                     15
                     A                      A                      A
 Frequencies --   816.0395               942.9508              1003.3967
 Red. masses --     3.8760                 2.9158                 1.9875
 Frc consts  --     1.5207                 1.5275                 1.1790
 IR Inten    --     3.9153                34.7332                23.6415

                    16                     17                     18
                     A                      A                      A
 Frequencies --  1023.2844              1042.8478              1050.4091
 Red. masses --     1.5960                 1.7493                 1.7438
 Frc consts  --     0.9846                 1.1209                 1.1336
 IR Inten    --    62.1466                16.0557                 0.2735

                    19                     20                     21
                     A                      A                      A
 Frequencies --  1191.9731              1314.6770              1387.3282
 Red. masses --     2.0220                 2.1364                 1.2407
 Frc consts  --     1.6926                 2.1755                 1.4069
 IR Inten    --    30.3001               111.2484                 1.7079

                    22                     23                     24
                     A                      A                      A
 Frequencies --  1401.0356              1472.0841              1484.5855
 Red. masses --     1.3807                 1.1561                 2.6895
 Frc consts  --     1.5967                 1.4761                 3.4925
 IR Inten    --    23.5272                 1.6907               161.6820

                    25                     26                     27
                     A                      A                      A
 Frequencies --  1497.7374              1505.1705              1511.3540
 Red. masses --     1.0517                 1.0511                 1.1851
 Frc consts  --     1.3900                 1.4030                 1.5949
 IR Inten    --     0.7779                 1.2830                31.6888

                    28                     29                     30
                     A                      A                      A
 Frequencies --  1646.9446              1677.4627              3017.0011
 Red. masses --     8.4172                 6.9403                 1.0339
 Frc consts  --    13.4516                11.5062                 5.5450
 IR Inten    --   778.5202               115.3881                64.0656

                    31                     32                     33
                     A                      A                      A
 Frequencies --  3038.4776              3073.0119              3095.7546
 Red. masses --     1.0342                 1.0999                 1.1027
 Frc consts  --     5.6254                 6.1198                 6.2267
 IR Inten    --    40.3866                55.1435                47.5350

                    34                     35                     36
                     A                      A                      A
 Frequencies --  3110.2226              3122.1297              3150.5060
 Red. masses --     1.0996                 1.1040                 1.0870
 Frc consts  --     6.2671                 6.3407                 6.3569
 IR Inten    --    30.1075                41.5244                56.3606

 - Thermochemistry -
 -------------------
 Temperature   298.150 Kelvin.  Pressure   1.00000 Atm.
 Atom     1 has atomic number  8 and mass  15.99491

 Molecular mass:    99.04460 amu.
 Principal axes and moments of inertia in atomic units:
                           1         2         3
     Eigenvalues --   336.826891063.535651378.32622
           X            0.99750  -0.07069  -0.00007
           Y            0.07069   0.99750   0.00004
           Z            0.00007  -0.00005   1.00000
 This molecule is an asymmetric top.
 Rotational symmetry number  1.
 Rotational temperatures (Kelvin)      0.25715     0.08144     0.06284
 Rotational constants (GHZ):           5.35807     1.69693     1.30937
 Zero-point vibrational energy     287676.7 (Joules/Mol)
                                   68.75638 (Kcal/Mol)
 Warning -- explicit consideration of  10 degrees of freedom as
           vibrations may cause significant error
 Vibrational temperatures:     79.57   142.54   147.82   246.66   295.31
          (Kelvin)            507.78   574.53   762.44   818.30   873.47
                              919.50  1134.47  1174.10  1356.69  1443.66
                             1472.28  1500.42  1511.30  1714.98  1891.52
                             1996.05  2015.78  2118.00  2135.98  2154.91
                             2165.60  2174.50  2369.58  2413.49  4340.79
                             4371.69  4421.37  4454.09  4474.91  4492.04
                             4532.87

 Zero-point correction=                           0.109570 (Hartree/Particle)
 Thermal correction to Energy=                    0.117603
 Thermal correction to Enthalpy=                  0.118547
 Thermal correction to Gibbs Free Energy=         0.076519
 Sum of electronic and zero-point Energies=           -345.115456
 Sum of electronic and thermal Energies=              -345.107423
 Sum of electronic and thermal Enthalpies=            -345.106479
 Sum of electronic and thermal Free Energies=         -345.148507

                     E (Thermal)             CV                S
                      KCal/Mol        Cal/Mol-Kelvin    Cal/Mol-Kelvin
 Total                   73.797             26.992             88.455
 Electronic               0.000              0.000              0.000
 Translational            0.889              2.981             39.689
 Rotational               0.889              2.981             27.692
 Vibrational             72.020             21.030             21.074
 Vibration     1          0.596              1.975              4.618
 Vibration     2          0.604              1.950              3.472
 Vibration     3          0.605              1.947              3.402
 Vibration     4          0.626              1.878              2.420
 Vibration     5          0.640              1.832              2.086
 Vibration     6          0.729              1.569              1.153
 Vibration     7          0.765              1.472              0.965
 Vibration     8          0.885              1.184              0.587
 Vibration     9          0.925              1.099              0.507
 Vibration    10          0.966              1.017              0.438

 Normal termination of Gaussian 09 at Fri Oct  1 19:39:10 2021.
 Gaussian 09:  AM64L-G09RevA.02 11-Jun-2009

 ----------------------------------------------------------------------
 #p TD(NStates=10, Root=1) b3lyp/6-31G* volume pop=NPA density=current
 Geom=AllCheck Guess=Read
 ----------------------------------------------------------------------

 [O-]/C(=C\C(=O)C)/C_conf_0
 --------------------------
 Redundant internal coordinates taken from checkpoint file:
 C5H7O2-_66e6_conf_0.chk
 Charge = -1 Multiplicity = 1

                         Standard orientation:
 ---------------------------------------------------------------------
 Center     Atomic      Atomic             Coordinates (Angstroms)
 Number     Number       Type             X           Y           Z
 ---------------------------------------------------------------------
      1          8           0        1.253271    1.338111    0.001111
      2          6           0        1.182989    0.082584    0.000959
      3          6           0        0.026893   -0.730536    0.002048
      4          6           0       -1.335283   -0.300988   -0.000285
      5          8           0       -2.307291   -1.090376   -0.000178
      6          6           0       -1.633793    1.205334   -0.001989
      7          6           0        2.538844   -0.663381   -0.001550
      8          1           0        0.159563   -1.811348    0.002953
      9          1           0       -1.155472    1.707582   -0.849669
     10          1           0       -1.219111    1.693061    0.887710
     11          1           0       -2.721221    1.340310   -0.036270
     12          1           0        3.117234   -0.359083   -0.884860
     13          1           0        2.449797   -1.756564    0.001776
     14          1           0        3.123473   -0.353925    0.875794
 ---------------------------------------------------------------------

 SCF Done:  E(RB3LYP) =  -345.225026451     A.U. after    1 cycles

 Excitation energies and oscillator strengths:

 Excited State   1:      Singlet-A      4.2752 eV  290.01 nm  f=0.0004  <S**2>=0.000
      26 -> 28         0.69905
 This state for optimization and/or second-order correction.
 Total Energy, E(TD-HF/TD-KS) =  -345.067916954
 Copying the excited state density for this state as the 1-particle RhoCI density.

 Excited State   2:      Singlet-A      4.6349 eV  267.50 nm  f=0.0000  <S**2>=0.000
      25 -> 28         0.69642

 Excited State   3:      Singlet-A      5.1527 eV  240.62 nm  f=0.3903  <S**2>=0.000
      27 -> 28         0.70048

 Excited State   4:      Singlet-A      6.3061 eV  196.61 nm  f=0.0007  <S**2>=0.000
      27 -> 29         0.69881

 Excited State   5:      Singlet-A      6.9833 eV  177.54 nm  f=0.0268  <S**2>=0.000
      25 -> 29         0.24679
      26 -> 29         0.65715

 Excited State   6:      Singlet-A      7.0431 eV  176.04 nm  f=0.0014  <S**2>=0.000
      27 -> 29        -0.10074
      27 -> 31         0.67756
      27 -> 32        -0.14138

 Excited State   7:      Singlet-A      7.1316 eV  173.85 nm  f=0.0219  <S**2>=0.000
      24 -> 28         0.12309
      27 -> 30         0.67315

 Excited State   8:      Singlet-A      7.1929 eV  172.37 nm  f=0.0001  <S**2>=0.000
      26 -> 30         0.69242

 Excited State   9:      Singlet-A      7.2876 eV  170.13 nm  f=0.0008  <S**2>=0.000
      27 -> 31         0.15645
      27 -> 32         0.68232

 Excited State  10:      Singlet-A      7.4725 eV  165.92 nm  f=0.0078  <S**2>=0.000
      25 -> 29         0.63791
      26 -> 29        -0.23934
      26 -> 31        -0.15459

 The electronic state is 1-A.
 Alpha  occ. eigenvalues --  -18.90557 -18.90204 -10.05795 -10.05703 -10.02058
 Alpha  occ. eigenvalues --  -10.00040  -9.95951  -0.80050  -0.79446  -0.57311
 Alpha  occ. eigenvalues --   -0.55192  -0.50282  -0.37472  -0.30403  -0.26776
 Alpha  occ. eigenvalues --   -0.26059  -0.25987  -0.24065  -0.22491  -0.20748
 Alpha  occ. eigenvalues --   -0.19005  -0.16819  -0.15483  -0.13825  -0.04227
 Alpha  occ. eigenvalues --   -0.02897  -0.00465
 Alpha virt. eigenvalues --    0.18195   0.26045   0.27858   0.29070   0.29830
 Alpha virt. eigenvalues --    0.32818   0.33219   0.35999   0.36928   0.40398
 Alpha virt. eigenvalues --    0.40737   0.48725   0.51070   0.58428   0.61837

 Mulliken atomic charges:
              1
     1  O   -0.581150
     2  C    0.345060
     3  C   -0.275888
     4  C    0.326183
     5  O   -0.533418
     6  C   -0.493058
     7  C   -0.492270
     8  H    0.031201
     9  H    0.140754
    10  H    0.135175
    11  H    0.092296
    12  H    0.097946
    13  H    0.109280
    14  H    0.097888
 Sum of Mulliken atomic charges =  -1.00000

 Dipole moment (field-independent basis, Debye):
    X=              1.2039    Y=             -0.0371    Z=             -0.0070  Tot=              1.2045
 Quadrupole moment (field-independent basis, Debye-Ang):
   XX=            -61.2410   YY=            -51.8962   ZZ=            -45.1743
   XY=             -7.9719   XZ=             -0.0083   YZ=             -0.0239

 Summary of Natural Population Analysis:

                                       Natural Population
                Natural  -----------------------------------------------
    Atom  No    Charge         Core      Valence    Rydberg      Total
 -----------------------------------------------------------------------
      O    1   -0.60510      1.99982     6.59471    0.01057     8.60510
      C    2    0.28463      1.99915     3.67820    0.03802     5.71537
      C    3   -0.48592      1.99900     4.47402    0.01290     6.48592
      C    4    0.27673      1.99920     3.68538    0.03868     5.72327
      O    5   -0.52232      1.99983     6.51182    0.01068     8.52232
      C    6   -0.71351      1.99936     4.70662    0.00752     6.71351
      C    7   -0.68870      1.99937     4.68122    0.00811     6.68870
      H    8    0.19735      0.00000     0.80070    0.00195     0.80265
      H    9    0.23063      0.00000     0.76769    0.00168     0.76937
      H   10    0.22627      0.00000     0.77189    0.00184     0.77373
      H   11    0.20427      0.00000     0.79359    0.00214     0.79573
      H   12    0.19392      0.00000     0.80017    0.00591     0.80608
      H   13    0.20780      0.00000     0.79093    0.00127     0.79220
      H   14    0.19395      0.00000     0.80013    0.00592     0.80605
 =======================================================================
   * Total *   -1.00000     13.99574    39.85708    0.14719    54.00000

 Normal termination of Gaussian 09 at Fri Oct  1 21:00:34 2021.
