 Gaussian 09, Revision A.02,

 -----------------------------------
 #p opt b3lyp/6-31G* scf=(xqc,tight)
 -----------------------------------

 ----------------
 CCCCN=C=O_conf_0
 ----------------
 Symbolic Z-matrix:
 Charge =  0 Multiplicity = 1

 SCF Done:  E(RB3LYP) =  -325.919670531     A.U. after   14 cycles
 SCF Done:  E(RB3LYP) =  -325.930047635     A.U. after   14 cycles
 SCF Done:  E(RB3LYP) =  -325.930050927     A.U. after   13 cycles
 SCF Done:  E(RB3LYP) =  -325.932057684     A.U. after   13 cycles
 SCF Done:  E(RB3LYP) =  -325.932623216     A.U. after   12 cycles
 SCF Done:  E(RB3LYP) =  -325.932974511     A.U. after   12 cycles
 SCF Done:  E(RB3LYP) =  -325.932994285     A.U. after   11 cycles
 SCF Done:  E(RB3LYP) =  -325.932998026     A.U. after   10 cycles
 SCF Done:  E(RB3LYP) =  -325.932998899     A.U. after    8 cycles
 SCF Done:  E(RB3LYP) =  -325.933001581     A.U. after   11 cycles
 SCF Done:  E(RB3LYP) =  -325.933008096     A.U. after   11 cycles
 SCF Done:  E(RB3LYP) =  -325.933018024     A.U. after   12 cycles
 SCF Done:  E(RB3LYP) =  -325.933020558     A.U. after   12 cycles
 SCF Done:  E(RB3LYP) =  -325.933020580     A.U. after    9 cycles
 Optimization completed.
    -- Stationary point found.
 Normal termination of Gaussian 09 at Mon Oct  4 03:10:00 2021.

 ----------------------------------------------------------------------
 #p freq b3lyp/6-31G* volume NMR pop=NPA density=current Geom=AllCheck
 Guess=Read
 ----------------------------------------------------------------------

 CCCCN=C=O_conf_0
 ----------------
 Redundant internal coordinates taken from checkpoint file:
 C5H9NO_85cc_conf_0.chk
 Charge =  0 Multiplicity = 1

 SCF Done:  E(RB3LYP) =  -325.933020580     A.U. after    1 cycles

  1  C    Isotropic =   174.1241   Anisotropy =    23.2418

  2  C    Isotropic =   166.4857   Anisotropy =    13.9593

  3  C    Isotropic =   156.1981   Anisotropy =    21.0412

  4  C    Isotropic =   145.9502   Anisotropy =    30.5912

  5  N    Isotropic =   224.9626   Anisotropy =   175.7093

  6  C    Isotropic =    78.0802   Anisotropy =   293.8469

  7  O    Isotropic =   202.6446   Anisotropy =   254.3082

  8  H    Isotropic =    30.9929   Anisotropy =     9.6768

  9  H    Isotropic =    31.2723   Anisotropy =     8.1867

 10  H    Isotropic =    31.2755   Anisotropy =     8.1431

 11  H    Isotropic =    30.9482   Anisotropy =     6.8741

 12  H    Isotropic =    30.2135   Anisotropy =     6.0374

 13  H    Isotropic =    30.6504   Anisotropy =     5.8230

 14  H    Isotropic =    31.0069   Anisotropy =     6.7119

 15  H    Isotropic =    28.6155   Anisotropy =     7.4694

 16  H    Isotropic =    28.7527   Anisotropy =     6.3201

  Exact polarizability:  80.157   8.099  55.434  -1.971  -0.492  47.309
 Approx polarizability: 110.448  22.039  77.838  -6.714  -2.522  68.861

                     1                      2                      3
                     A                      A                      A
 Frequencies --    13.7855                78.8048               137.8385
 Red. masses --     6.8093                 1.9928                 4.0031
 Frc consts  --     0.0008                 0.0073                 0.0448
 IR Inten    --     0.1177                 0.4582                 4.3114

                     4                      5                      6
                     A                      A                      A
 Frequencies --   146.0030               245.5577               261.5771
 Red. masses --     3.2689                 1.3489                 1.6027
 Frc consts  --     0.0411                 0.0479                 0.0646
 IR Inten    --     5.0572                 1.4692                 1.7219

                     7                      8                      9
                     A                      A                      A
 Frequencies --   317.9841               503.6254               564.6100
 Red. masses --     2.9325                 2.6603                12.1088
 Frc consts  --     0.1747                 0.3976                 2.2743
 IR Inten    --     3.1348                12.0593                20.6979

                    10                     11                     12
                     A                      A                      A
 Frequencies --   619.6633               747.0269               808.0522
 Red. masses --    10.4592                 1.2383                 2.3538
 Frc consts  --     2.3662                 0.4072                 0.9055
 IR Inten    --    27.3916                 0.1038                15.1589

                    13                     14                     15
                     A                      A                      A
 Frequencies --   836.6540               925.7546               971.4610
 Red. masses --     1.7100                 1.6061                 1.2875
 Frc consts  --     0.7052                 0.8110                 0.7159
 IR Inten    --     1.4596                 5.9443                 1.4314

                    16                     17                     18
                     A                      A                      A
 Frequencies --  1025.0481              1072.0622              1141.6469
 Red. masses --     3.1128                 2.2875                 2.0003
 Frc consts  --     1.9270                 1.5490                 1.5360
 IR Inten    --     8.1638                 4.3478                 5.0371

                    19                     20                     21
                     A                      A                      A
 Frequencies --  1167.3528              1269.4316              1295.0426
 Red. masses --     1.6825                 1.2585                 1.2486
 Frc consts  --     1.3509                 1.1948                 1.2338
 IR Inten    --     4.8234                 2.9369                 2.0587

                    22                     23                     24
                     A                      A                      A
 Frequencies --  1346.5521              1355.0140              1407.3420
 Red. masses --     1.1137                 1.2529                 1.2719
 Frc consts  --     1.1898                 1.3554                 1.4843
 IR Inten    --     0.9267                 6.1860                82.6708

                    25                     26                     27
                     A                      A                      A
 Frequencies --  1426.0542              1443.2414              1487.7811
 Red. masses --     1.5658                 1.2367                 8.6319
 Frc consts  --     1.8761                 1.5177                11.2574
 IR Inten    --     0.2162                 1.0028                13.6726

                    28                     29                     30
                     A                      A                      A
 Frequencies --  1509.7599              1522.6675              1524.4051
 Red. masses --     1.1223                 1.0777                 1.0678
 Frc consts  --     1.5072                 1.4721                 1.4620
 IR Inten    --     2.4295                15.1667                 2.1231

                    31                     32                     33
                     A                      A                      A
 Frequencies --  1531.0413              1539.7945              2388.2799
 Red. masses --     1.0411                 1.0827                12.2968
 Frc consts  --     1.4379                 1.5125                41.3250
 IR Inten    --     7.0408                 3.6741              1065.0047

                    34                     35                     36
                     A                      A                      A
 Frequencies --  3028.9605              3035.4578              3039.3077
 Red. masses --     1.0641                 1.0608                 1.0572
 Frc consts  --     5.7522                 5.7590                 5.7540
 IR Inten    --    11.1390                26.1544                26.9594

                    37                     38                     39
                     A                      A                      A
 Frequencies --  3044.1376              3067.1376              3077.8726
 Red. masses --     1.0412                 1.0952                 1.1032
 Frc consts  --     5.6847                 6.0701                 6.1576
 IR Inten    --    43.5368                 5.1763                30.3046

                    40                     41                     42
                     A                      A                      A
 Frequencies --  3088.2742              3109.7191              3115.3348
 Red. masses --     1.1049                 1.1029                 1.1017
 Frc consts  --     6.2087                 6.2841                 6.2997
 IR Inten    --    29.9575                73.4272                37.9407

 - Thermochemistry -
 -------------------
 Temperature   298.150 Kelvin.  Pressure   1.00000 Atm.
 Atom     1 has atomic number  6 and mass  12.00000

 Molecular mass:    99.06841 amu.
 Principal axes and moments of inertia in atomic units:
                           1         2         3
     Eigenvalues --   264.261581727.578781911.22636
           X            0.99981  -0.01909  -0.00310
           Y            0.01912   0.99979   0.00760
           Z            0.00296  -0.00766   0.99997
 This molecule is an asymmetric top.
 Rotational symmetry number  1.
 Rotational temperatures (Kelvin)      0.32776     0.05014     0.04532
 Rotational constants (GHZ):           6.82937     1.04467     0.94428
 Zero-point vibrational energy     360298.0 (Joules/Mol)
                                   86.11328 (Kcal/Mol)
 Warning -- explicit consideration of  10 degrees of freedom as
           vibrations may cause significant error
 Vibrational temperatures:     19.83   113.38   198.32   210.07   353.30
          (Kelvin)            376.35   457.51   724.60   812.35   891.56
                             1074.80  1162.61  1203.76  1331.95  1397.71
                             1474.81  1542.46  1642.57  1679.56  1826.43
                             1863.28  1937.39  1949.56  2024.85  2051.77
                             2076.50  2140.58  2172.21  2190.78  2193.28
                             2202.82  2215.42  3436.20  4357.99  4367.34
                             4372.88  4379.83  4412.92  4428.37  4443.33
                             4474.19  4482.27

 Zero-point correction=                           0.137230 (Hartree/Particle)
 Thermal correction to Energy=                    0.145501
 Thermal correction to Enthalpy=                  0.146445
 Thermal correction to Gibbs Free Energy=         0.102518
 Sum of electronic and zero-point Energies=           -325.795790
 Sum of electronic and thermal Energies=              -325.787520
 Sum of electronic and thermal Enthalpies=            -325.786576
 Sum of electronic and thermal Free Energies=         -325.830502

                     E (Thermal)             CV                S
                      KCal/Mol        Cal/Mol-Kelvin    Cal/Mol-Kelvin
 Total                   91.303             27.483             92.452
 Electronic               0.000              0.000              0.000
 Translational            0.889              2.981             39.690
 Rotational               0.889              2.981             28.258
 Vibrational             89.526             21.521             24.504
 Vibration     1          0.593              1.986              7.373
 Vibration     2          0.600              1.963              3.920
 Vibration     3          0.614              1.916              2.834
 Vibration     4          0.617              1.907              2.724
 Vibration     5          0.660              1.770              1.762
 Vibration     6          0.669              1.743              1.651
 Vibration     7          0.704              1.639              1.320
 Vibration     8          0.859              1.242              0.649
 Vibration     9          0.920              1.108              0.515
 Vibration    10          0.980              0.990              0.417

 Optimization completed.
    -- Stationary point found.
 Normal termination of Gaussian 09 at Mon Oct  4 03:36:07 2021.
 Gaussian 09:  AM64L-G09RevA.02 11-Jun-2009

 ----------------------------------------------------------------------
 #p TD(NStates=10, Root=1) b3lyp/6-31G* volume pop=NPA density=current
 Geom=AllCheck Guess=Read
 ----------------------------------------------------------------------

 CCCCN=C=O_conf_0
 ----------------
 Redundant internal coordinates taken from checkpoint file:
 C5H9NO_85cc_conf_0.chk
 Charge =  0 Multiplicity = 1

                         Standard orientation:
 ---------------------------------------------------------------------
 Center     Atomic      Atomic             Coordinates (Angstroms)
 Number     Number       Type             X           Y           Z
 ---------------------------------------------------------------------
      1          6           0        3.109876   -0.766438   -0.126688
      2          6           0        1.674370   -0.476942    0.322625
      3          6           0        1.150209    0.868845   -0.189945
      4          6           0       -0.285735    1.178996    0.241057
      5          7           0       -1.221794    0.223227   -0.322054
      6          6           0       -2.297819   -0.260565   -0.072851
      7          8           0       -3.337003   -0.808825    0.052948
      8          1           0        3.457996   -1.733495    0.252869
      9          1           0        3.804178    0.002589    0.234134
     10          1           0        3.184394   -0.792226   -1.220702
     11          1           0        1.622116   -0.490551    1.420997
     12          1           0        1.008755   -1.275605   -0.027887
     13          1           0        1.203322    0.896542   -1.286312
     14          1           0        1.789651    1.683325    0.177911
     15          1           0       -0.566935    2.182388   -0.101944
     16          1           0       -0.360301    1.171661    1.336532
 ---------------------------------------------------------------------

 SCF Done:  E(RB3LYP) =  -325.933020580     A.U. after    1 cycles

 Excitation energies and oscillator strengths:

 Excited State   1:      Singlet-A      6.3129 eV  196.40 nm  f=0.0009  <S**2>=0.000
      27 -> 28         0.69851
 This state for optimization and/or second-order correction.
 Total Energy, E(TD-HF/TD-KS) =  -325.701024255
 Copying the excited state density for this state as the 1-particle RhoCI density.

 Excited State   2:      Singlet-A      7.2197 eV  171.73 nm  f=0.0112  <S**2>=0.000
      26 -> 28         0.56511
      27 -> 29         0.41491

 Excited State   3:      Singlet-A      7.9893 eV  155.19 nm  f=0.0028  <S**2>=0.000
      26 -> 29         0.69445

 Excited State   4:      Singlet-A      8.9175 eV  139.03 nm  f=0.0021  <S**2>=0.000
      24 -> 28        -0.24565
      25 -> 28         0.65116

 Excited State   5:      Singlet-A      8.9608 eV  138.36 nm  f=0.0226  <S**2>=0.000
      23 -> 28         0.17809
      24 -> 28         0.55079
      25 -> 28         0.23523
      27 -> 29         0.11515
      27 -> 30        -0.24942
      27 -> 31         0.12154

 Excited State   6:      Singlet-A      9.0313 eV  137.28 nm  f=0.0096  <S**2>=0.000
      24 -> 28         0.31618
      27 -> 29        -0.10160
      27 -> 30         0.49696
      27 -> 31        -0.30941
      27 -> 32        -0.10999
      27 -> 33        -0.12274

 Excited State   7:      Singlet-A      9.1129 eV  136.05 nm  f=0.0778  <S**2>=0.000
      23 -> 28         0.50905
      24 -> 28        -0.13896
      26 -> 28        -0.21051
      26 -> 30        -0.16903
      27 -> 29         0.25203
      27 -> 30         0.12469
      27 -> 31        -0.14423
      27 -> 32        -0.12054

 Excited State   8:      Singlet-A      9.4152 eV  131.69 nm  f=0.0636  <S**2>=0.000
      23 -> 28         0.34362
      26 -> 30         0.37960
      26 -> 31        -0.23808
      27 -> 29        -0.16035
      27 -> 30         0.19104
      27 -> 31         0.22472
      27 -> 32         0.18187

 Excited State   9:      Singlet-A      9.4638 eV  131.01 nm  f=0.0105  <S**2>=0.000
      26 -> 30        -0.29945
      26 -> 31         0.20757
      27 -> 30         0.32793
      27 -> 31         0.40009
      27 -> 32         0.22814
      27 -> 33         0.12999

 Excited State  10:      Singlet-A      9.6722 eV  128.19 nm  f=0.1308  <S**2>=0.000
      22 -> 28        -0.10653
      23 -> 28         0.19214
      26 -> 28         0.13031
      26 -> 30        -0.15103
      26 -> 31         0.13309
      26 -> 32         0.16703
      27 -> 29        -0.23282
      27 -> 30        -0.11819
      27 -> 31        -0.29654
      27 -> 32         0.40844

 The electronic state is 1-A.
 Alpha  occ. eigenvalues --  -19.18647 -14.35602 -10.31782 -10.24632 -10.19313
 Alpha  occ. eigenvalues --  -10.18633 -10.17828  -1.08841  -0.94722  -0.80644
 Alpha  occ. eigenvalues --   -0.74545  -0.65822  -0.59361  -0.53636  -0.48859
 Alpha  occ. eigenvalues --   -0.47821  -0.46294  -0.45233  -0.42968  -0.42465
 Alpha  occ. eigenvalues --   -0.39206  -0.37983  -0.35032  -0.33913  -0.33536
 Alpha  occ. eigenvalues --   -0.28968  -0.27353
 Alpha virt. eigenvalues --    0.02144   0.06462   0.09426   0.10842   0.12430
 Alpha virt. eigenvalues --    0.13151   0.14702   0.16654   0.17256   0.17700
 Alpha virt. eigenvalues --    0.18723   0.19523   0.22855   0.23242   0.25119

 Mulliken atomic charges:
              1
     1  C   -0.444477
     2  C   -0.251600
     3  C   -0.249828
     4  C   -0.133619
     5  N   -0.278499
     6  C    0.380485
     7  O   -0.333335
     8  H    0.149183
     9  H    0.143937
    10  H    0.147676
    11  H    0.133340
    12  H    0.148430
    13  H    0.146153
    14  H    0.136885
    15  H    0.184519
    16  H    0.120751
 Sum of Mulliken atomic charges =  -0.00000

 Dipole moment (field-independent basis, Debye):
    X=              2.5049    Y=              1.5991    Z=              0.1946  Tot=              2.9782
 Quadrupole moment (field-independent basis, Debye-Ang):
   XX=            -50.8291   YY=            -40.6173   ZZ=            -43.4185
   XY=             -3.2315   XZ=              0.7966   YZ=             -0.6108

 Summary of Natural Population Analysis:

                                       Natural Population
                Natural  -----------------------------------------------
    Atom  No    Charge         Core      Valence    Rydberg      Total
 -----------------------------------------------------------------------
      C    1   -0.67407      1.99946     4.66698    0.00763     6.67407
      C    2   -0.45985      1.99935     4.44959    0.01091     6.45985
      C    3   -0.46460      1.99931     4.45224    0.01305     6.46460
      C    4   -0.28671      1.99922     4.27192    0.01557     6.28671
      N    5   -0.31566      1.99926     5.28321    0.03319     7.31566
      C    6    0.47969      1.99938     3.46762    0.05331     5.52031
      O    7   -0.37872      1.99982     6.36215    0.01675     8.37872
      H    8    0.23629      0.00000     0.76293    0.00078     0.76371
      H    9    0.22556      0.00000     0.77339    0.00106     0.77444
      H   10    0.22763      0.00000     0.77130    0.00107     0.77237
      H   11    0.22701      0.00000     0.77053    0.00247     0.77299
      H   12    0.23474      0.00000     0.76196    0.00330     0.76526
      H   13    0.23736      0.00000     0.75871    0.00393     0.76264
      H   14    0.23649      0.00000     0.76103    0.00248     0.76351
      H   15    0.27338      0.00000     0.72231    0.00431     0.72662
      H   16    0.20146      0.00000     0.78241    0.01613     0.79854
 =======================================================================
   * Total *    0.00000     13.99580    39.81826    0.18595    54.00000

 Normal termination of Gaussian 09 at Mon Oct  4 05:10:42 2021.
