 Gaussian 09, Revision A.02,

 -----------------------------------
 #p opt b3lyp/6-31G* scf=(xqc,tight)
 -----------------------------------

 -------------------
 CP(CCP(C)C)C_conf_0
 -------------------
 Symbolic Z-matrix:
 Charge =  0 Multiplicity = 1

 SCF Done:  E(RB3LYP) =  -920.987960712     A.U. after   12 cycles
 SCF Done:  E(RB3LYP) =  -920.990074475     A.U. after   11 cycles
 SCF Done:  E(RB3LYP) =  -920.990206636     A.U. after   10 cycles
 SCF Done:  E(RB3LYP) =  -920.990220237     A.U. after   13 cycles
 SCF Done:  E(RB3LYP) =  -920.990222347     A.U. after    7 cycles
 SCF Done:  E(RB3LYP) =  -920.990222976     A.U. after   13 cycles
 SCF Done:  E(RB3LYP) =  -920.990223099     A.U. after    6 cycles
 Optimization completed.
    -- Stationary point found.
 Normal termination of Gaussian 09 at Fri Oct  1 19:14:21 2021.

 ----------------------------------------------------------------------
 #p freq b3lyp/6-31G* volume NMR pop=NPA density=current Geom=AllCheck
 Guess=Read
 ----------------------------------------------------------------------

 CP(CCP(C)C)C_conf_0
 -------------------
 Redundant internal coordinates taken from checkpoint file:
 C6H16P2_97b8_conf_0.chk
 Charge =  0 Multiplicity = 1

 SCF Done:  E(RB3LYP) =  -920.990223099     A.U. after    1 cycles

  1  C    Isotropic =   173.1379   Anisotropy =    26.0880

  2  P    Isotropic =   412.1395   Anisotropy =    47.2882

  3  C    Isotropic =   157.3177   Anisotropy =    28.7811

  4  C    Isotropic =   157.3226   Anisotropy =    28.7771

  5  P    Isotropic =   412.1255   Anisotropy =    47.3039

  6  C    Isotropic =   173.1409   Anisotropy =    26.0829

  7  C    Isotropic =   174.0003   Anisotropy =    26.5020

  8  C    Isotropic =   174.0006   Anisotropy =    26.4982

  9  H    Isotropic =    31.2314   Anisotropy =     9.6208

 10  H    Isotropic =    31.3337   Anisotropy =     7.8838

 11  H    Isotropic =    31.2176   Anisotropy =    10.5495

 12  H    Isotropic =    30.8089   Anisotropy =     4.4893

 13  H    Isotropic =    30.6777   Anisotropy =     6.4540

 14  H    Isotropic =    30.8088   Anisotropy =     4.4889

 15  H    Isotropic =    30.6781   Anisotropy =     6.4561

 16  H    Isotropic =    31.2314   Anisotropy =     9.6205

 17  H    Isotropic =    31.2177   Anisotropy =    10.5492

 18  H    Isotropic =    31.3335   Anisotropy =     7.8844

 19  H    Isotropic =    30.9984   Anisotropy =     8.5209

 20  H    Isotropic =    31.4826   Anisotropy =     7.9798

 21  H    Isotropic =    31.2119   Anisotropy =    10.4404

 22  H    Isotropic =    31.2119   Anisotropy =    10.4399

 23  H    Isotropic =    31.4828   Anisotropy =     7.9787

 24  H    Isotropic =    30.9983   Anisotropy =     8.5209

  Exact polarizability: 137.261   1.264 107.114   0.752  -0.335  88.249
 Approx polarizability: 169.002   0.426 158.897  -0.319  -0.328 136.602

                     1                      2                      3
                     A                      A                      A
 Frequencies --    24.4608                79.1000                92.9914
 Red. masses --     2.9384                 2.9739                 2.9865
 Frc consts  --     0.0010                 0.0110                 0.0152
 IR Inten    --     1.4505                 1.3067                 1.1871

                     4                      5                      6
                     A                      A                      A
 Frequencies --   113.2610               180.5199               189.9295
 Red. masses --     2.3524                 1.7581                 1.0336
 Frc consts  --     0.0178                 0.0338                 0.0220
 IR Inten    --     0.0000                 0.0000                 0.0468

                     7                      8                      9
                     A                      A                      A
 Frequencies --   190.6281               194.3394               205.2316
 Red. masses --     1.1533                 2.2378                 1.0522
 Frc consts  --     0.0247                 0.0498                 0.0261
 IR Inten    --     0.0002                 0.0000                 0.1708

                    10                     11                     12
                     A                      A                      A
 Frequencies --   213.6693               249.5741               270.6841
 Red. masses --     1.3336                 2.3949                 2.5142
 Frc consts  --     0.0359                 0.0879                 0.1085
 IR Inten    --     0.0000                 0.4178                 0.0000

                    13                     14                     15
                     A                      A                      A
 Frequencies --   293.5591               294.2516               341.8805
 Red. masses --     2.6555                 3.4996                 3.2473
 Frc consts  --     0.1348                 0.1785                 0.2236
 IR Inten    --     0.2207                 0.0000                 2.9221

                    16                     17                     18
                     A                      A                      A
 Frequencies --   638.4450               655.8706               691.7428
 Red. masses --     4.3379                 4.2649                 4.3991
 Frc consts  --     1.0418                 1.0809                 1.2402
 IR Inten    --     0.4076                 0.0000                21.4271

                    19                     20                     21
                     A                      A                      A
 Frequencies --   693.6271               700.3153               727.7826
 Red. masses --     4.7496                 4.5909                 1.2407
 Frc consts  --     1.3463                 1.3266                 0.3872
 IR Inten    --     0.0000                18.5529                 8.1149

                    22                     23                     24
                     A                      A                      A
 Frequencies --   737.6432               827.9017               840.4723
 Red. masses --     2.7075                 1.2624                 1.2005
 Frc consts  --     0.8680                 0.5098                 0.4997
 IR Inten    --     0.0000                 0.0000                 4.7108

                    25                     26                     27
                     A                      A                      A
 Frequencies --   854.9292               887.9758               912.7281
 Red. masses --     1.2121                 1.2408                 1.4868
 Frc consts  --     0.5220                 0.5764                 0.7298
 IR Inten    --     0.0000                12.8669                 0.0000

                    28                     29                     30
                     A                      A                      A
 Frequencies --   926.0525               976.5721               979.9379
 Red. masses --     1.3387                 1.4052                 1.3885
 Frc consts  --     0.6764                 0.7896                 0.7856
 IR Inten    --    56.3371                 0.0001                67.4927

                    31                     32                     33
                     A                      A                      A
 Frequencies --   990.6437              1038.5114              1129.8097
 Red. masses --     1.5544                 3.6865                 1.0683
 Frc consts  --     0.8988                 2.3425                 0.8034
 IR Inten    --     0.0000                 0.0000                27.8157

                    34                     35                     36
                     A                      A                      A
 Frequencies --  1216.6432              1314.6873              1322.8450
 Red. masses --     1.2154                 1.2683                 1.2271
 Frc consts  --     1.0600                 1.2916                 1.2651
 IR Inten    --     7.1500                 0.0000                 0.0000

                    37                     38                     39
                     A                      A                      A
 Frequencies --  1347.1956              1347.5483              1363.8228
 Red. masses --     1.2000                 1.1998                 1.1943
 Frc consts  --     1.2832                 1.2837                 1.3088
 IR Inten    --     0.0005                 6.4140                 5.5391

                    40                     41                     42
                     A                      A                      A
 Frequencies --  1365.2245              1487.1837              1492.9676
 Red. masses --     1.2003                 1.0726                 1.0666
 Frc consts  --     1.3181                 1.3977                 1.4007
 IR Inten    --     0.0001                 0.0000                 1.9250

                    43                     44                     45
                     A                      A                      A
 Frequencies --  1496.3101              1497.4665              1499.8991
 Red. masses --     1.0608                 1.0540                 1.0600
 Frc consts  --     1.3993                 1.3925                 1.4051
 IR Inten    --     3.7716                 0.0000                 0.0000

                    46                     47                     48
                     A                      A                      A
 Frequencies --  1500.5017              1504.5050              1504.9249
 Red. masses --     1.0693                 1.0494                 1.0515
 Frc consts  --     1.4185                 1.3995                 1.4030
 IR Inten    --    17.7923                10.6691                 0.0002

                    49                     50                     51
                     A                      A                      A
 Frequencies --  1511.0320              1512.1681              3025.4916
 Red. masses --     1.0486                 1.0516                 1.0589
 Frc consts  --     1.4106                 1.4167                 5.7110
 IR Inten    --     0.0000                26.1891                 0.0001

                    52                     53                     54
                     A                      A                      A
 Frequencies --  3031.7148              3037.6522              3037.7379
 Red. masses --     1.0579                 1.0351                 1.0352
 Frc consts  --     5.7289                 5.6276                 5.6280
 IR Inten    --    30.9156                49.0626                 0.0137

                    55                     56                     57
                     A                      A                      A
 Frequencies --  3039.2131              3039.5562              3067.4135
 Red. masses --     1.0356                 1.0366                 1.1026
 Frc consts  --     5.6356                 5.6424                 6.1126
 IR Inten    --     0.0095                33.6336                 0.0000

                    58                     59                     60
                     A                      A                      A
 Frequencies --  3086.4606              3116.2386              3116.2446
 Red. masses --     1.1046                 1.1019                 1.1019
 Frc consts  --     6.1999                 6.3046                 6.3044
 IR Inten    --    31.5708                23.1544                 0.7999

                    61                     62                     63
                     A                      A                      A
 Frequencies --  3118.4148              3118.4565              3130.1796
 Red. masses --     1.1011                 1.1011                 1.1021
 Frc consts  --     6.3087                 6.3087                 6.3623
 IR Inten    --     0.3860                38.7739                 0.1659

                    64                     65                     66
                     A                      A                      A
 Frequencies --  3130.2301              3132.2654              3132.3720
 Red. masses --     1.1021                 1.1016                 1.1017
 Frc consts  --     6.3623                 6.3676                 6.3688
 IR Inten    --    25.0190                 0.0093                27.6295

 - Thermochemistry -
 -------------------
 Temperature   298.150 Kelvin.  Pressure   1.00000 Atm.
 Atom     1 has atomic number  6 and mass  12.00000

 Molecular mass:   150.07273 amu.
 Principal axes and moments of inertia in atomic units:
                           1         2         3
     Eigenvalues --   639.449983259.145813615.03201
           X            0.99969   0.00032   0.02488
           Y           -0.00032   1.00000   0.00010
           Z           -0.02488  -0.00011   0.99969
 This molecule is an asymmetric top.
 Rotational symmetry number  1.
 Warning -- assumption of classical behavior for rotation
           may cause significant error
 Rotational temperatures (Kelvin)      0.13545     0.02658     0.02396
 Rotational constants (GHZ):           2.82233     0.55375     0.49923
 Zero-point vibrational energy     549023.8 (Joules/Mol)
                                  131.21983 (Kcal/Mol)
 Warning -- explicit consideration of  15 degrees of freedom as
           vibrations may cause significant error
 Vibrational temperatures:     35.19   113.81   133.79   162.96   259.73
          (Kelvin)            273.27   274.27   279.61   295.28   307.42
                              359.08   389.45   422.37   423.36   491.89
                              918.58   943.65   995.26   997.97  1007.60
                             1047.12  1061.30  1191.16  1209.25  1230.05
                             1277.60  1313.21  1332.38  1405.07  1409.91
                             1425.31  1494.18  1625.54  1750.48  1891.54
                             1903.28  1938.31  1938.82  1962.23  1964.25
                             2139.72  2148.04  2152.85  2154.52  2158.02
                             2158.88  2164.64  2165.25  2174.04  2175.67
                             4353.00  4361.96  4370.50  4370.62  4372.74
                             4373.24  4413.32  4440.72  4483.57  4483.58
                             4486.70  4486.76  4503.62  4503.70  4506.63
                             4506.78

 Zero-point correction=                           0.209112 (Hartree/Particle)
 Thermal correction to Energy=                    0.222113
 Thermal correction to Enthalpy=                  0.223057
 Thermal correction to Gibbs Free Energy=         0.169527
 Sum of electronic and zero-point Energies=           -920.781111
 Sum of electronic and thermal Energies=              -920.768110
 Sum of electronic and thermal Enthalpies=            -920.767166
 Sum of electronic and thermal Free Energies=         -920.820696

                     E (Thermal)             CV                S
                      KCal/Mol        Cal/Mol-Kelvin    Cal/Mol-Kelvin
 Total                  139.378             45.966            112.663
 Electronic               0.000              0.000              0.000
 Translational            0.889              2.981             40.928
 Rotational               0.889              2.981             30.400
 Vibrational            137.600             40.004             41.335
 Vibration     1          0.593              1.985              6.234
 Vibration     2          0.600              1.963              3.913
 Vibration     3          0.602              1.954              3.596
 Vibration     4          0.607              1.938              3.212
 Vibration     5          0.629              1.866              2.323
 Vibration     6          0.633              1.854              2.229
 Vibration     7          0.634              1.853              2.222
 Vibration     8          0.635              1.848              2.186
 Vibration     9          0.640              1.832              2.086
 Vibration    10          0.644              1.820              2.012
 Vibration    11          0.662              1.763              1.734
 Vibration    12          0.674              1.727              1.592
 Vibration    13          0.688              1.686              1.453
 Vibration    14          0.689              1.684              1.449
 Vibration    15          0.721              1.592              1.203

 Normal termination of Gaussian 09 at Fri Oct  1 19:52:11 2021.
 Gaussian 09:  AM64L-G09RevA.02 11-Jun-2009

 ----------------------------------------------------------------------
 #p TD(NStates=10, Root=1) b3lyp/6-31G* volume pop=NPA density=current
 Geom=AllCheck Guess=Read
 ----------------------------------------------------------------------

 CP(CCP(C)C)C_conf_0
 -------------------
 Redundant internal coordinates taken from checkpoint file:
 C6H16P2_97b8_conf_0.chk
 Charge =  0 Multiplicity = 1

                         Standard orientation:
 ---------------------------------------------------------------------
 Center     Atomic      Atomic             Coordinates (Angstroms)
 Number     Number       Type             X           Y           Z
 ---------------------------------------------------------------------
      1          6           0       -3.337137   -1.171084   -0.297746
      2         15           0       -2.207975    0.003018    0.616778
      3          6           0       -0.589450   -0.433776   -0.233336
      4          6           0        0.589341    0.433398    0.233452
      5         15           0        2.207830   -0.003398   -0.616742
      6          6           0        3.336839    1.171649    0.296739
      7          6           0        2.632637   -1.582164    0.287985
      8          6           0       -2.632037    1.582456   -0.287112
      9          1           0       -3.128683   -2.200096    0.014714
     10          1           0       -3.224766   -1.105427   -1.387181
     11          1           0       -4.378917   -0.951641   -0.039870
     12          1           0       -0.705956   -0.366672   -1.324036
     13          1           0       -0.394690   -1.488588    0.001399
     14          1           0        0.705883    0.366375    1.324153
     15          1           0        0.394536    1.488182   -0.001358
     16          1           0        3.128104    2.200366   -0.016509
     17          1           0        4.378633    0.952244    0.038882
     18          1           0        3.224647    1.106840    1.386241
     19          1           0        1.964223   -2.388717   -0.030810
     20          1           0        2.561842   -1.476083    1.377911
     21          1           0        3.654173   -1.882888    0.031065
     22          1           0       -3.653648    1.883186   -0.030495
     23          1           0       -2.560733    1.477056   -1.377071
     24          1           0       -1.963634    2.388684    0.032526
 ---------------------------------------------------------------------

 SCF Done:  E(RB3LYP) =  -920.990223099     A.U. after    1 cycles

 Excitation energies and oscillator strengths:

 Excited State   1:      Singlet-A      6.4545 eV  192.09 nm  f=0.2190  <S**2>=0.000
      41 -> 42         0.69720
 This state for optimization and/or second-order correction.
 Total Energy, E(TD-HF/TD-KS) =  -920.753023253
 Copying the excited state density for this state as the 1-particle RhoCI density.

 Excited State   2:      Singlet-A      6.6140 eV  187.46 nm  f=0.0000  <S**2>=0.000
      40 -> 42         0.67863
      41 -> 43         0.14139

 Excited State   3:      Singlet-A      6.8080 eV  182.11 nm  f=0.0000  <S**2>=0.000
      40 -> 42        -0.15395
      41 -> 43         0.67538

 Excited State   4:      Singlet-A      6.8751 eV  180.34 nm  f=0.1977  <S**2>=0.000
      40 -> 43         0.66921
      41 -> 44        -0.18066

 Excited State   5:      Singlet-A      7.0435 eV  176.03 nm  f=0.0572  <S**2>=0.000
      40 -> 43         0.18036
      41 -> 44         0.67073

 Excited State   6:      Singlet-A      7.1140 eV  174.28 nm  f=0.0000  <S**2>=0.000
      40 -> 44         0.65193
      41 -> 45        -0.20040

 Excited State   7:      Singlet-A      7.2385 eV  171.28 nm  f=0.0000  <S**2>=0.000
      40 -> 44         0.21358
      40 -> 46        -0.23567
      41 -> 45         0.61597

 Excited State   8:      Singlet-A      7.2407 eV  171.23 nm  f=0.0509  <S**2>=0.000
      40 -> 45        -0.47514
      41 -> 46         0.49863

 Excited State   9:      Singlet-A      7.4382 eV  166.69 nm  f=0.0192  <S**2>=0.000
      40 -> 45         0.50691
      41 -> 46         0.48124

 Excited State  10:      Singlet-A      7.4740 eV  165.89 nm  f=0.0000  <S**2>=0.000
      40 -> 46         0.64431
      41 -> 45         0.26131

 The electronic state is 1-A.
 Alpha  occ. eigenvalues --  -77.07150 -77.07149 -10.18742 -10.18721 -10.17968
 Alpha  occ. eigenvalues --  -10.17968 -10.17949 -10.17949  -6.53910  -6.53909
 Alpha  occ. eigenvalues --   -4.70171  -4.70171  -4.70160  -4.70160  -4.69651
 Alpha  occ. eigenvalues --   -4.69651  -0.78060  -0.74270  -0.71402  -0.68530
 Alpha  occ. eigenvalues --   -0.68465  -0.62388  -0.52767  -0.52194  -0.45780
 Alpha  occ. eigenvalues --   -0.42728  -0.42631  -0.42057  -0.41432  -0.40359
 Alpha  occ. eigenvalues --   -0.39654  -0.39561  -0.39335  -0.37215  -0.35609
 Alpha  occ. eigenvalues --   -0.35380  -0.32361  -0.31550  -0.28815  -0.22293
 Alpha  occ. eigenvalues --   -0.21875
 Alpha virt. eigenvalues --    0.04482   0.05698   0.06415   0.07357   0.08049
 Alpha virt. eigenvalues --    0.10652   0.11570   0.12312   0.12795   0.13660
 Alpha virt. eigenvalues --    0.14085   0.15300   0.15362   0.16092   0.17605

 Mulliken atomic charges:
              1
     1  C   -0.602653
     2  P    0.299331
     3  C   -0.383469
     4  C   -0.383464
     5  P    0.299161
     6  C   -0.602644
     7  C   -0.600334
     8  C   -0.600322
     9  H    0.165863
    10  H    0.159901
    11  H    0.167283
    12  H    0.142654
    13  H    0.133008
    14  H    0.142619
    15  H    0.132977
    16  H    0.165847
    17  H    0.167285
    18  H    0.159864
    19  H    0.175983
    20  H    0.175071
    21  H    0.167472
    22  H    0.167455
    23  H    0.175105
    24  H    0.176008
 Sum of Mulliken atomic charges =  -0.00000

 Dipole moment (field-independent basis, Debye):
    X=             -0.0032    Y=              0.0007    Z=              0.0009  Tot=              0.0034
 Quadrupole moment (field-independent basis, Debye-Ang):
   XX=            -64.9788   YY=            -65.5535   ZZ=            -72.3239
   XY=             -0.8838   XZ=              5.9815   YZ=             -1.3929

 Summary of Natural Population Analysis:

                                       Natural Population
                Natural  -----------------------------------------------
    Atom  No    Charge         Core      Valence    Rydberg      Total
 -----------------------------------------------------------------------
      C    1   -1.04086      1.99948     5.02657    0.01481     7.04086
      P    2    0.90398      9.99804     4.00664    0.09134    14.09602
      C    3   -0.81667      1.99933     4.79235    0.02499     6.81667
      C    4   -0.81673      1.99933     4.79240    0.02500     6.81673
      P    5    0.90367      9.99804     4.00695    0.09134    14.09633
      C    6   -1.04080      1.99948     5.02652    0.01480     7.04080
      C    7   -0.99778      1.99947     4.98839    0.00991     6.99778
      C    8   -0.99781      1.99947     4.98842    0.00991     6.99781
      H    9    0.24807      0.00000     0.75092    0.00101     0.75193
      H   10    0.23802      0.00000     0.75840    0.00358     0.76198
      H   11    0.25075      0.00000     0.74793    0.00132     0.74925
      H   12    0.23387      0.00000     0.75823    0.00790     0.76613
      H   13    0.23205      0.00000     0.76185    0.00611     0.76795
      H   14    0.23384      0.00000     0.75825    0.00790     0.76616
      H   15    0.23202      0.00000     0.76187    0.00611     0.76798
      H   16    0.24806      0.00000     0.75093    0.00101     0.75194
      H   17    0.25075      0.00000     0.74793    0.00132     0.74925
      H   18    0.23798      0.00000     0.75843    0.00359     0.76202
      H   19    0.25513      0.00000     0.74194    0.00294     0.74487
      H   20    0.24894      0.00000     0.74871    0.00235     0.75106
      H   21    0.24470      0.00000     0.75319    0.00211     0.75530
      H   22    0.24469      0.00000     0.75320    0.00211     0.75531
      H   23    0.24897      0.00000     0.74868    0.00235     0.75103
      H   24    0.25515      0.00000     0.74191    0.00294     0.74485
 =======================================================================
   * Total *   -0.00000     31.99266    49.67059    0.33675    82.00000

 Normal termination of Gaussian 09 at Fri Oct  1 23:19:38 2021.
