 Gaussian 09, Revision A.02,

 -----------------------------------
 #p opt b3lyp/genecp scf=(xqc,tight)
 -----------------------------------

 ----------------
 IC1CCCCC1_conf_0
 ----------------
 Symbolic Z-matrix:
 Charge =  0 Multiplicity = 1

 SCF Done:  E(RB3LYP) =  -246.658213166     A.U. after   14 cycles
 SCF Done:  E(RB3LYP) =  -246.660574090     A.U. after   12 cycles
 SCF Done:  E(RB3LYP) =  -246.660924816     A.U. after   15 cycles
 SCF Done:  E(RB3LYP) =  -246.660951718     A.U. after   11 cycles
 SCF Done:  E(RB3LYP) =  -246.660952235     A.U. after    7 cycles
 SCF Done:  E(RB3LYP) =  -246.660952023     A.U. after    7 cycles
 Optimization completed.
    -- Stationary point found.
 Normal termination of Gaussian 09 at Sat Oct  2 10:00:30 2021.

 ----------------------------------------------------------------------
 #p freq b3lyp/genecp volume NMR pop=NPA density=current Geom=AllCheck
 Guess=Read
 ----------------------------------------------------------------------

 IC1CCCCC1_conf_0
 ----------------
 Redundant internal coordinates taken from checkpoint file:
 C6H11I_b2e9_conf_0.chk
 Charge =  0 Multiplicity = 1

 SCF Done:  E(RB3LYP) =  -246.660952023     A.U. after    1 cycles

  1  I    Isotropic =    47.6751   Anisotropy =    29.5565

  2  C    Isotropic =   124.1044   Anisotropy =    64.5952

  3  C    Isotropic =   149.2021   Anisotropy =    30.0900

  4  C    Isotropic =   159.4732   Anisotropy =     9.3379

  5  C    Isotropic =   163.8026   Anisotropy =     3.6654

  6  C    Isotropic =   159.4737   Anisotropy =     9.3381

  7  C    Isotropic =   149.2022   Anisotropy =    30.0930

  8  H    Isotropic =    28.0700   Anisotropy =     5.8196

  9  H    Isotropic =    30.0942   Anisotropy =     6.2519

 10  H    Isotropic =    30.1982   Anisotropy =     4.4068

 11  H    Isotropic =    30.7443   Anisotropy =     7.3053

 12  H    Isotropic =    30.5232   Anisotropy =     9.4512

 13  H    Isotropic =    30.6942   Anisotropy =     9.5756

 14  H    Isotropic =    30.7857   Anisotropy =     7.4824

 15  H    Isotropic =    30.7443   Anisotropy =     7.3056

 16  H    Isotropic =    30.5231   Anisotropy =     9.4510

 17  H    Isotropic =    30.0942   Anisotropy =     6.2516

 18  H    Isotropic =    30.1982   Anisotropy =     4.4068

  Exact polarizability: 116.691   0.000  65.541  -4.152  -0.000  57.010
 Approx polarizability: 155.737   0.001  85.332 -10.012  -0.000  86.759

                     1                      2                      3
                     A                      A                      A
 Frequencies --   115.5173               189.7007               206.8811
 Red. masses --     2.8902                 3.8824                 6.8362
 Frc consts  --     0.0227                 0.0823                 0.1724
 IR Inten    --     0.3110                 0.3075                 6.4661

                     4                      5                      6
                     A                      A                      A
 Frequencies --   229.6014               312.4262               417.8826
 Red. masses --     1.7899                 1.8320                 2.0687
 Frc consts  --     0.0556                 0.1054                 0.2128
 IR Inten    --     0.0456                 0.0447                 0.4508

                     7                      8                      9
                     A                      A                      A
 Frequencies --   438.4867               486.5590               646.8514
 Red. masses --     3.1373                 1.8236                 2.5107
 Frc consts  --     0.3554                 0.2544                 0.6190
 IR Inten    --     0.3642                 6.5265                45.8932

                    10                     11                     12
                     A                      A                      A
 Frequencies --   802.2016               815.0531               856.9758
 Red. masses --     1.4308                 2.9013                 1.8774
 Frc consts  --     0.5425                 1.1356                 0.8124
 IR Inten    --     0.3613                 7.9162                 1.7865

                    13                     14                     15
                     A                      A                      A
 Frequencies --   895.5007               898.4299               936.3924
 Red. masses --     2.1105                 1.9204                 1.4095
 Frc consts  --     0.9972                 0.9133                 0.7282
 IR Inten    --     2.3933                 7.9578                 2.1145

                    16                     17                     18
                     A                      A                      A
 Frequencies --  1006.5131              1037.8086              1069.2137
 Red. masses --     2.1352                 1.9554                 1.3839
 Frc consts  --     1.2745                 1.2409                 0.9322
 IR Inten    --    26.7749                 0.6844                 0.2758

                    19                     20                     21
                     A                      A                      A
 Frequencies --  1093.0885              1107.2384              1129.6205
 Red. masses --     1.7001                 1.5868                 1.5172
 Frc consts  --     1.1968                 1.1462                 1.1407
 IR Inten    --     0.3046                 0.1686                27.5585

                    22                     23                     24
                     A                      A                      A
 Frequencies --  1213.1600              1214.6886              1291.8404
 Red. masses --     1.4063                 1.5634                 1.2713
 Frc consts  --     1.2194                 1.3591                 1.2500
 IR Inten    --     0.5500                50.8973                21.3290

                    25                     26                     27
                     A                      A                      A
 Frequencies --  1298.2098              1306.8536              1344.1050
 Red. masses --     1.2697                 1.2706                 1.2702
 Frc consts  --     1.2608                 1.2785                 1.3520
 IR Inten    --     2.4710                 0.9453                 0.0097

                    28                     29                     30
                     A                      A                      A
 Frequencies --  1378.0326              1383.2903              1395.7979
 Red. masses --     1.3459                 1.3402                 1.3633
 Frc consts  --     1.5059                 1.5109                 1.5649
 IR Inten    --     0.2859                 8.4622                 0.4966

                    31                     32                     33
                     A                      A                      A
 Frequencies --  1402.8711              1404.1264              1511.0926
 Red. masses --     1.4390                 1.4626                 1.0857
 Frc consts  --     1.6686                 1.6989                 1.4607
 IR Inten    --     3.5637                 0.0689                 0.0037

                    34                     35                     36
                     A                      A                      A
 Frequencies --  1515.3571              1517.0946              1521.7875
 Red. masses --     1.0914                 1.0981                 1.0871
 Frc consts  --     1.4766                 1.4891                 1.4833
 IR Inten    --     2.2164                 3.8038                14.0508

                    37                     38                     39
                     A                      A                      A
 Frequencies --  1535.5870              3027.4590              3030.3453
 Red. masses --     1.0993                 1.0704                 1.0654
 Frc consts  --     1.5273                 5.7802                 5.7642
 IR Inten    --     1.4860                16.7054                21.1170

                    40                     41                     42
                     A                      A                      A
 Frequencies --  3034.3627              3054.0241              3056.6748
 Red. masses --     1.0613                 1.0646                 1.0660
 Frc consts  --     5.7571                 5.8504                 5.8680
 IR Inten    --    34.9960                 2.5994                 9.0301

                    43                     44                     45
                     A                      A                      A
 Frequencies --  3077.8521              3079.7588              3084.5738
 Red. masses --     1.0931                 1.0969                 1.1012
 Frc consts  --     6.1011                 6.1300                 6.1730
 IR Inten    --    54.2693                49.7976                53.9069

                    46                     47                     48
                     A                      A                      A
 Frequencies --  3103.1099              3107.9154              3128.8561
 Red. masses --     1.0958                 1.1020                 1.0922
 Frc consts  --     6.2172                 6.2713                 6.2998
 IR Inten    --     8.9984                22.7024                36.5969

 - Thermochemistry -
 -------------------
 Temperature   298.150 Kelvin.  Pressure   1.00000 Atm.
 Atom     1 has atomic number 53 and mass 126.90040

 Molecular mass:   209.98648 amu.
 Principal axes and moments of inertia in atomic units:
                           1         2         3
     Eigenvalues --   424.846422767.460283079.21611
           X            1.00000  -0.00000   0.00197
           Y            0.00000   1.00000  -0.00000
           Z           -0.00197   0.00000   1.00000
 This molecule is an asymmetric top.
 Rotational symmetry number  1.
 Rotational temperatures (Kelvin)      0.20387     0.03130     0.02813
 Rotational constants (GHZ):           4.24798     0.65213     0.58610
 Zero-point vibrational energy     422944.3 (Joules/Mol)
                                  101.08612 (Kcal/Mol)
 Warning -- explicit consideration of   8 degrees of freedom as
           vibrations may cause significant error
 Vibrational temperatures:    166.20   272.94   297.66   330.34   449.51
          (Kelvin)            601.24   630.88   700.05   930.67  1154.19
                             1172.68  1233.00  1288.42  1292.64  1347.26
                             1448.15  1493.17  1538.36  1572.71  1593.07
                             1625.27  1745.46  1747.66  1858.67  1867.83
                             1880.27  1933.86  1982.68  1990.24  2008.24
                             2018.42  2020.22  2174.12  2180.26  2182.76
                             2189.51  2209.36  4355.83  4359.99  4365.77
                             4394.05  4397.87  4428.34  4431.08  4438.01
                             4464.68  4471.59  4501.72

 Zero-point correction=                           0.161091 (Hartree/Particle)
 Thermal correction to Energy=                    0.168288
 Thermal correction to Enthalpy=                  0.169232
 Thermal correction to Gibbs Free Energy=         0.127977
 Sum of electronic and zero-point Energies=           -246.499861
 Sum of electronic and thermal Energies=              -246.492664
 Sum of electronic and thermal Enthalpies=            -246.491720
 Sum of electronic and thermal Free Energies=         -246.532975

                     E (Thermal)             CV                S
                      KCal/Mol        Cal/Mol-Kelvin    Cal/Mol-Kelvin
 Total                  105.602             27.045             86.829
 Electronic               0.000              0.000              0.000
 Translational            0.889              2.981             41.929
 Rotational               0.889              2.981             29.672
 Vibrational            103.825             21.083             15.228
 Vibration     1          0.608              1.937              3.174
 Vibration     2          0.633              1.854              2.231
 Vibration     3          0.641              1.830              2.071
 Vibration     4          0.652              1.796              1.882
 Vibration     5          0.701              1.650              1.349
 Vibration     6          0.781              1.431              0.899
 Vibration     7          0.799              1.386              0.831
 Vibration     8          0.843              1.280              0.693

 Optimization completed.
    -- Stationary point found.
 Normal termination of Gaussian 09 at Sat Oct  2 10:36:01 2021.
 Gaussian 09:  AM64L-G09RevA.02 11-Jun-2009

 ----------------------------------------------------------------------
 #p TD(NStates=10, Root=1) b3lyp/genecp volume pop=NPA density=current
 Geom=AllCheck Guess=Read
 ----------------------------------------------------------------------

 IC1CCCCC1_conf_0
 ----------------
 Redundant internal coordinates taken from checkpoint file:
 C6H11I_b2e9_conf_0.chk
 Charge =  0 Multiplicity = 1

                         Standard orientation:
 ---------------------------------------------------------------------
 Center     Atomic      Atomic             Coordinates (Angstroms)
 Number     Number       Type             X           Y           Z
 ---------------------------------------------------------------------
      1         53           0        1.719159    0.000001   -0.025814
      2          6           0       -0.480511   -0.000024    0.419268
      3          6           0       -1.125190   -1.271011   -0.124965
      4          6           0       -2.637557   -1.265961    0.185783
      5          6           0       -3.320875    0.000011   -0.351131
      6          6           0       -2.637536    1.265982    0.185761
      7          6           0       -1.125161    1.270990   -0.124931
      8          1           0       -0.481917   -0.000050    1.511998
      9          1           0       -0.650096   -2.158188    0.306025
     10          1           0       -0.974947   -1.319025   -1.211062
     11          1           0       -2.785719   -1.327605    1.273611
     12          1           0       -3.096347   -2.165440   -0.243393
     13          1           0       -4.384741    0.000033   -0.083047
     14          1           0       -3.273719   -0.000008   -1.449886
     15          1           0       -2.785762    1.327689    1.273571
     16          1           0       -3.096276    2.165449   -0.243506
     17          1           0       -0.650069    2.158142    0.306120
     18          1           0       -0.974873    1.319057   -1.211017
 ---------------------------------------------------------------------

 SCF Done:  E(RB3LYP) =  -246.660952023     A.U. after    1 cycles

 Excitation energies and oscillator strengths:

 Excited State   1:      Singlet-A      4.7848 eV  259.12 nm  f=0.0013  <S**2>=0.000
      27 -> 28         0.70705
 This state for optimization and/or second-order correction.
 Total Energy, E(TD-HF/TD-KS) =  -246.485115332
 Copying the excited state density for this state as the 1-particle RhoCI density.

 Excited State   2:      Singlet-A      4.7880 eV  258.95 nm  f=0.0001  <S**2>=0.000
      26 -> 28         0.70714

 Excited State   3:      Singlet-A      6.7024 eV  184.98 nm  f=0.0003  <S**2>=0.000
      24 -> 28         0.70151

 Excited State   4:      Singlet-A      6.8304 eV  181.52 nm  f=0.4987  <S**2>=0.000
      20 -> 28         0.10377
      22 -> 28        -0.17428
      23 -> 28         0.13095
      25 -> 28         0.65781

 Excited State   5:      Singlet-A      7.1477 eV  173.46 nm  f=0.0330  <S**2>=0.000
      20 -> 28        -0.13823
      23 -> 28         0.67286
      25 -> 28        -0.13227

 Excited State   6:      Singlet-A      7.8040 eV  158.87 nm  f=0.0003  <S**2>=0.000
      21 -> 28         0.70458

 Excited State   7:      Singlet-A      7.8656 eV  157.63 nm  f=0.0392  <S**2>=0.000
      20 -> 28         0.30418
      22 -> 28         0.60823
      23 -> 28         0.16386

 Excited State   8:      Singlet-A      8.3248 eV  148.93 nm  f=0.0010  <S**2>=0.000
      26 -> 29         0.69398
      26 -> 30         0.10352

 Excited State   9:      Singlet-A      8.3256 eV  148.92 nm  f=0.0050  <S**2>=0.000
      27 -> 29         0.69103
      27 -> 30         0.10728

 Excited State  10:      Singlet-A      8.6587 eV  143.19 nm  f=0.0186  <S**2>=0.000
      18 -> 28         0.40139
      19 -> 28         0.57258

 The electronic state is 1-A.
 Alpha  occ. eigenvalues --  -10.23678 -10.18911 -10.18908 -10.18593 -10.18590
 Alpha  occ. eigenvalues --  -10.18262  -0.84570  -0.75947  -0.75278  -0.65862
 Alpha  occ. eigenvalues --   -0.62159  -0.59762  -0.56495  -0.48640  -0.45234
 Alpha  occ. eigenvalues --   -0.44962  -0.43771  -0.39330  -0.38822  -0.37586
 Alpha  occ. eigenvalues --   -0.35642  -0.35573  -0.33063  -0.31684  -0.29446
 Alpha  occ. eigenvalues --   -0.24793  -0.24789
 Alpha virt. eigenvalues --   -0.03343   0.08467   0.10028   0.12297   0.13197
 Alpha virt. eigenvalues --    0.15219   0.15974   0.16627   0.16712   0.17017
 Alpha virt. eigenvalues --    0.17210   0.17564   0.21910   0.22275   0.23788

 Mulliken atomic charges:
              1
     1  I    0.140473
     2  C   -0.393281
     3  C   -0.204762
     4  C   -0.244823
     5  C   -0.251444
     6  C   -0.244819
     7  C   -0.204781
     8  H    0.150385
     9  H    0.130446
    10  H    0.118701
    11  H    0.126408
    12  H    0.123449
    13  H    0.129992
    14  H    0.125034
    15  H    0.126415
    16  H    0.123450
    17  H    0.130456
    18  H    0.118698
 Sum of Mulliken atomic charges =  -0.00000

 Dipole moment (field-independent basis, Debye):
    X=             -0.6770    Y=              0.0001    Z=              0.2399  Tot=              0.7182
 Quadrupole moment (field-independent basis, Debye-Ang):
   XX=            -62.7392   YY=            -60.4398   ZZ=            -56.3527
   XY=             -0.0007   XZ=              0.9048   YZ=             -0.0020

 Summary of Natural Population Analysis:

                                       Natural Population
                Natural  -----------------------------------------------
    Atom  No    Charge         Core      Valence    Rydberg      Total
 -----------------------------------------------------------------------
      I    1    0.27264     46.00000     6.70657    0.02080    52.72736
      C    2   -0.47297      1.99903     4.45428    0.01965     6.47297
      C    3   -0.47801      1.99910     4.46529    0.01363     6.47801
      C    4   -0.44867      1.99917     4.43754    0.01196     6.44867
      C    5   -0.45935      1.99917     4.44847    0.01171     6.45935
      C    6   -0.44867      1.99917     4.43753    0.01196     6.44867
      C    7   -0.47802      1.99910     4.46529    0.01363     6.47802
      H    8    0.22895      0.00000     0.76749    0.00356     0.77105
      H    9    0.23719      0.00000     0.76022    0.00259     0.76281
      H   10    0.21840      0.00000     0.77834    0.00326     0.78160
      H   11    0.22501      0.00000     0.77276    0.00222     0.77499
      H   12    0.23105      0.00000     0.76658    0.00237     0.76895
      H   13    0.23800      0.00000     0.76064    0.00136     0.76200
      H   14    0.22277      0.00000     0.77497    0.00227     0.77723
      H   15    0.22502      0.00000     0.77276    0.00222     0.77498
      H   16    0.23105      0.00000     0.76658    0.00237     0.76895
      H   17    0.23720      0.00000     0.76021    0.00259     0.76280
      H   18    0.21840      0.00000     0.77835    0.00326     0.78160
 =======================================================================
   * Total *   -0.00000     57.99475    41.87387    0.13138   100.00000

 Normal termination of Gaussian 09 at Sat Oct  2 13:24:40 2021.
