 Gaussian 09, Revision A.02,

 -----------------------------------
 #p opt b3lyp/6-31G* scf=(xqc,tight)
 -----------------------------------

 ------------------------
 CC(OP(=O)OC(C)C)C_conf_0
 ------------------------
 Symbolic Z-matrix:
 Charge =  0 Multiplicity = 1

 SCF Done:  E(RB3LYP) =  -804.751774681     A.U. after   14 cycles
 SCF Done:  E(RB3LYP) =  -804.760237934     A.U. after   12 cycles
 SCF Done:  E(RB3LYP) =  -804.762182533     A.U. after   12 cycles
 SCF Done:  E(RB3LYP) =  -804.763024560     A.U. after   12 cycles
 SCF Done:  E(RB3LYP) =  -804.763856723     A.U. after   12 cycles
 SCF Done:  E(RB3LYP) =  -804.764321996     A.U. after   12 cycles
 SCF Done:  E(RB3LYP) =  -804.764565433     A.U. after   12 cycles
 SCF Done:  E(RB3LYP) =  -804.764598319     A.U. after   10 cycles
 SCF Done:  E(RB3LYP) =  -804.764626646     A.U. after   11 cycles
 SCF Done:  E(RB3LYP) =  -804.764642178     A.U. after   11 cycles
 SCF Done:  E(RB3LYP) =  -804.764767077     A.U. after   11 cycles
 SCF Done:  E(RB3LYP) =  -804.764769093     A.U. after   11 cycles
 SCF Done:  E(RB3LYP) =  -804.764773478     A.U. after   10 cycles
 SCF Done:  E(RB3LYP) =  -804.764774579     A.U. after   10 cycles
 SCF Done:  E(RB3LYP) =  -804.764774944     A.U. after    8 cycles
 SCF Done:  E(RB3LYP) =  -804.764775030     A.U. after    7 cycles
 SCF Done:  E(RB3LYP) =  -804.764775210     A.U. after    7 cycles
 SCF Done:  E(RB3LYP) =  -804.764775268     A.U. after    6 cycles
 Optimization completed.
    -- Stationary point found.
 Normal termination of Gaussian 09 at Tue Oct  5 17:03:23 2021.

 ----------------------------------------------------------------------
 #p freq b3lyp/6-31G* volume NMR pop=NPA density=current Geom=AllCheck
 Guess=Read
 ----------------------------------------------------------------------

 CC(OP(=O)OC(C)C)C_conf_0
 ------------------------
 Redundant internal coordinates taken from checkpoint file:
 C6H15O3P_d060_conf_0.chk
 Charge =  0 Multiplicity = 1

 SCF Done:  E(RB3LYP) =  -804.764775268     A.U. after    1 cycles

  1  C    Isotropic =   166.0789   Anisotropy =    32.8930

  2  C    Isotropic =   121.5776   Anisotropy =    67.6435

  3  O    Isotropic =   197.9405   Anisotropy =    94.4517

  4  P    Isotropic =   365.9222   Anisotropy =   224.5331

  5  O    Isotropic =   186.9908   Anisotropy =    57.2385

  6  O    Isotropic =   199.2937   Anisotropy =    94.1303

  7  C    Isotropic =   124.3538   Anisotropy =    57.4305

  8  C    Isotropic =   165.9568   Anisotropy =    32.6909

  9  C    Isotropic =   165.5476   Anisotropy =    34.6289

 10  C    Isotropic =   166.5257   Anisotropy =    32.7615

 11  H    Isotropic =    30.7615   Anisotropy =     7.1757

 12  H    Isotropic =    30.8831   Anisotropy =     6.0737

 13  H    Isotropic =    31.1987   Anisotropy =     9.0923

 14  H    Isotropic =    27.2923   Anisotropy =     3.2338

 15  H    Isotropic =    25.2382   Anisotropy =    10.1982

 16  H    Isotropic =    27.3409   Anisotropy =     3.7770

 17  H    Isotropic =    30.9309   Anisotropy =     6.5024

 18  H    Isotropic =    30.5682   Anisotropy =     7.0068

 19  H    Isotropic =    31.2568   Anisotropy =     8.8267

 20  H    Isotropic =    30.9228   Anisotropy =     6.8093

 21  H    Isotropic =    31.2050   Anisotropy =     9.1010

 22  H    Isotropic =    30.5855   Anisotropy =     7.7904

 23  H    Isotropic =    30.9724   Anisotropy =     6.2787

 24  H    Isotropic =    30.7627   Anisotropy =     7.1748

 25  H    Isotropic =    31.2446   Anisotropy =     9.3278

  Exact polarizability: 106.184  -1.106  88.719  -0.611   1.833  79.380
 Approx polarizability: 123.533  -1.655 119.223   2.382  -1.918 122.340

                     1                      2                      3
                     A                      A                      A
 Frequencies --    15.1559                20.4696                37.4583
 Red. masses --     2.6869                 2.9002                 3.6908
 Frc consts  --     0.0004                 0.0007                 0.0031
 IR Inten    --     0.2429                 0.5254                 1.1091

                     4                      5                      6
                     A                      A                      A
 Frequencies --    56.8849               137.8092               159.2548
 Red. masses --     5.0974                 4.5541                 4.1031
 Frc consts  --     0.0097                 0.0510                 0.0613
 IR Inten    --     2.1624                 8.6092                 3.5858

                     7                      8                      9
                     A                      A                      A
 Frequencies --   227.2851               235.9273               244.8591
 Red. masses --     1.0288                 1.0366                 2.5405
 Frc consts  --     0.0313                 0.0340                 0.0897
 IR Inten    --     0.0320                 0.0072                 4.7924

                    10                     11                     12
                     A                      A                      A
 Frequencies --   260.1734               267.7006               336.5455
 Red. masses --     1.1063                 1.2682                 2.2687
 Frc consts  --     0.0441                 0.0535                 0.1514
 IR Inten    --     0.6446                 1.2884                 0.1726

                    13                     14                     15
                     A                      A                      A
 Frequencies --   354.7586               385.8942               429.2571
 Red. masses --     2.5256                 3.7239                 2.9882
 Frc consts  --     0.1873                 0.3267                 0.3244
 IR Inten    --     2.2942                 4.5336                 8.1000

                    16                     17                     18
                     A                      A                      A
 Frequencies --   436.0759               467.0568               499.8822
 Red. masses --     2.7230                 4.5395                 3.6716
 Frc consts  --     0.3051                 0.5834                 0.5406
 IR Inten    --     6.6396                14.7511                11.4829

                    19                     20                     21
                     A                      A                      A
 Frequencies --   547.2469               729.8293               758.5726
 Red. masses --     7.6302                 3.1640                 3.0382
 Frc consts  --     1.3463                 0.9930                 1.0301
 IR Inten    --    37.3065                 8.2303                21.2782

                    22                     23                     24
                     A                      A                      A
 Frequencies --   885.9377               902.5357               947.1333
 Red. masses --     2.8363                 2.5851                 1.3112
 Frc consts  --     1.3116                 1.2407                 0.6930
 IR Inten    --    15.5851                 9.8322                 0.8591

                    25                     26                     27
                     A                      A                      A
 Frequencies --   948.5894               958.5083               959.0088
 Red. masses --     1.2734                 1.3518                 1.3136
 Frc consts  --     0.6751                 0.7317                 0.7118
 IR Inten    --     5.8943                16.4063                 2.5682

                    28                     29                     30
                     A                      A                      A
 Frequencies --   973.6206               995.3627              1022.3565
 Red. masses --     2.6613                 2.9906                 1.5568
 Frc consts  --     1.4864                 1.7457                 0.9587
 IR Inten    --   773.5516               131.3715                76.3774

                    31                     32                     33
                     A                      A                      A
 Frequencies --  1079.5537              1148.9849              1152.0888
 Red. masses --     1.4236                 1.7643                 1.8552
 Frc consts  --     0.9775                 1.3723                 1.4508
 IR Inten    --    21.1195                31.9090                54.2604

                    34                     35                     36
                     A                      A                      A
 Frequencies --  1170.2509              1170.8210              1213.2295
 Red. masses --     2.0151                 2.0752                 1.9160
 Frc consts  --     1.6259                 1.6760                 1.6616
 IR Inten    --     9.1466                11.3281                12.9526

                    37                     38                     39
                     A                      A                      A
 Frequencies --  1218.6714              1283.6867              1382.8455
 Red. masses --     1.9285                 8.0899                 1.3726
 Frc consts  --     1.6875                 7.8544                 1.5465
 IR Inten    --    12.5313               199.3075                 3.9936

                    40                     41                     42
                     A                      A                      A
 Frequencies --  1391.6676              1397.7790              1413.9035
 Red. masses --     1.2332                 1.2871                 1.1898
 Frc consts  --     1.4072                 1.4817                 1.4014
 IR Inten    --    12.1622                 7.2964                 9.0396

                    43                     44                     45
                     A                      A                      A
 Frequencies --  1432.0086              1434.7808              1446.6916
 Red. masses --     1.3414                 1.3689                 1.2541
 Frc consts  --     1.6207                 1.6603                 1.5464
 IR Inten    --    10.4471                16.2346                22.5687

                    46                     47                     48
                     A                      A                      A
 Frequencies --  1447.0467              1511.0361              1511.8830
 Red. masses --     1.2517                 1.0527                 1.0491
 Frc consts  --     1.5443                 1.4161                 1.4128
 IR Inten    --     5.2316                 0.9000                 1.3845

                    49                     50                     51
                     A                      A                      A
 Frequencies --  1515.0533              1518.8799              1522.2678
 Red. masses --     1.0482                 1.0455                 1.0491
 Frc consts  --     1.4176                 1.4211                 1.4323
 IR Inten    --     0.0777                 0.3681                 2.9677

                    52                     53                     54
                     A                      A                      A
 Frequencies --  1524.6926              1537.3299              1540.5113
 Red. masses --     1.0493                 1.0508                 1.0503
 Frc consts  --     1.4372                 1.4632                 1.4686
 IR Inten    --     5.4626                 6.2317                 4.3083

                    55                     56                     57
                     A                      A                      A
 Frequencies --  2541.9286              3052.4795              3055.1378
 Red. masses --     1.0409                 1.0348                 1.0355
 Frc consts  --     3.9627                 5.6811                 5.6948
 IR Inten    --   116.3051                16.2584                11.3403

                    58                     59                     60
                     A                      A                      A
 Frequencies --  3058.2611              3059.9686              3066.2159
 Red. masses --     1.0356                 1.0367                 1.0856
 Frc consts  --     5.7070                 5.7194                 6.0134
 IR Inten    --    11.2869                17.2623                 9.7816

                    61                     62                     63
                     A                      A                      A
 Frequencies --  3089.7283              3122.4367              3122.5224
 Red. masses --     1.0873                 1.1024                 1.1027
 Frc consts  --     6.1155                 6.3328                 6.3344
 IR Inten    --     1.6476                 8.7191                 0.9654

                    64                     65                     66
                     A                      A                      A
 Frequencies --  3125.9851              3130.5087              3133.2455
 Red. masses --     1.1035                 1.1020                 1.1022
 Frc consts  --     6.3531                 6.3630                 6.3751
 IR Inten    --    16.5649                45.6404                41.9568

                    67                     68                     69
                     A                      A                      A
 Frequencies --  3136.0346              3141.5243              3145.6398
 Red. masses --     1.1024                 1.1031                 1.1026
 Frc consts  --     6.3877                 6.4144                 6.4280
 IR Inten    --    34.6450                16.7399                21.8086

 - Thermochemistry -
 -------------------
 Temperature   298.150 Kelvin.  Pressure   1.00000 Atm.
 Atom     1 has atomic number  6 and mass  12.00000

 Molecular mass:   166.07588 amu.
 Principal axes and moments of inertia in atomic units:
                           1         2         3
     Eigenvalues --   955.607952721.737913260.65021
           X            0.99998  -0.00375  -0.00468
           Y            0.00388   0.99965   0.02611
           Z            0.00458  -0.02612   0.99965
 This molecule is an asymmetric top.
 Rotational symmetry number  1.
 Warning -- assumption of classical behavior for rotation
           may cause significant error
 Rotational temperatures (Kelvin)      0.09064     0.03182     0.02656
 Rotational constants (GHZ):           1.88858     0.66308     0.55349
 Zero-point vibrational energy     563132.7 (Joules/Mol)
                                  134.59194 (Kcal/Mol)
 Warning -- explicit consideration of  19 degrees of freedom as
           vibrations may cause significant error
 Vibrational temperatures:     21.81    29.45    53.89    81.84   198.28
          (Kelvin)            229.13   327.01   339.45   352.30   374.33
                              385.16   484.21   510.42   555.21   617.60
                              627.42   671.99   719.22   787.37  1050.06
                             1091.42  1274.67  1298.55  1362.71  1364.81
                             1379.08  1379.80  1400.82  1432.10  1470.94
                             1553.24  1653.13  1657.60  1683.73  1684.55
                             1745.56  1753.39  1846.94  1989.60  2002.30
                             2011.09  2034.29  2060.34  2064.33  2081.46
                             2081.97  2174.04  2175.26  2179.82  2185.33
                             2190.20  2193.69  2211.87  2216.45  3657.26
                             4391.83  4395.66  4400.15  4402.61  4411.60
                             4445.42  4492.48  4492.61  4497.59  4504.10
                             4508.04  4512.05  4519.95  4525.87

 Zero-point correction=                           0.214486 (Hartree/Particle)
 Thermal correction to Energy=                    0.227665
 Thermal correction to Enthalpy=                  0.228610
 Thermal correction to Gibbs Free Energy=         0.172160
 Sum of electronic and zero-point Energies=           -804.550289
 Sum of electronic and thermal Energies=              -804.537110
 Sum of electronic and thermal Enthalpies=            -804.536166
 Sum of electronic and thermal Free Energies=         -804.592616

                     E (Thermal)             CV                S
                      KCal/Mol        Cal/Mol-Kelvin    Cal/Mol-Kelvin
 Total                  142.862             46.223            118.809
 Electronic               0.000              0.000              0.000
 Translational            0.889              2.981             41.230
 Rotational               0.889              2.981             30.518
 Vibrational            141.085             40.262             47.061
 Vibration     1          0.593              1.986              7.185
 Vibration     2          0.593              1.986              6.588
 Vibration     3          0.594              1.982              5.389
 Vibration     4          0.596              1.975              4.562
 Vibration     5          0.614              1.916              2.834
 Vibration     6          0.621              1.892              2.559
 Vibration     7          0.651              1.799              1.900
 Vibration     8          0.655              1.786              1.833
 Vibration     9          0.660              1.771              1.767
 Vibration    10          0.668              1.746              1.661
 Vibration    11          0.673              1.732              1.611
 Vibration    12          0.717              1.603              1.228
 Vibration    13          0.731              1.565              1.145
 Vibration    14          0.755              1.500              1.016
 Vibration    15          0.791              1.407              0.861
 Vibration    16          0.797              1.392              0.839
 Vibration    17          0.824              1.323              0.746
 Vibration    18          0.855              1.250              0.658
 Vibration    19          0.902              1.146              0.550

 Normal termination of Gaussian 09 at Tue Oct  5 17:08:30 2021.
 Gaussian 09:  AM64L-G09RevA.02 11-Jun-2009

 ----------------------------------------------------------------------
 #p TD(NStates=10, Root=1) b3lyp/6-31G* volume pop=NPA density=current
 Geom=AllCheck Guess=Read
 ----------------------------------------------------------------------

 CC(OP(=O)OC(C)C)C_conf_0
 ------------------------
 Redundant internal coordinates taken from checkpoint file:
 C6H15O3P_d060_conf_0.chk
 Charge =  0 Multiplicity = 1

                         Standard orientation:
 ---------------------------------------------------------------------
 Center     Atomic      Atomic             Coordinates (Angstroms)
 Number     Number       Type             X           Y           Z
 ---------------------------------------------------------------------
      1          6           0        2.476238    1.769842    0.632125
      2          6           0        2.230101    0.296765    0.336985
      3          8           0        0.976196    0.228679   -0.410927
      4         15           0        0.002696   -1.060169   -0.287495
      5          8           0        0.118436   -1.801379    0.993013
      6          8           0       -1.423466   -0.448846   -0.696476
      7          6           0       -2.133244    0.451596    0.214756
      8          6           0       -2.166522    1.832023   -0.427414
      9          6           0       -3.509906   -0.150133    0.458674
     10          6           0        3.343726   -0.346712   -0.483144
     11          1           0        1.648248    2.191908    1.210118
     12          1           0        2.575137    2.339298   -0.298677
     13          1           0        3.398595    1.889881    1.211050
     14          1           0        2.087463   -0.255804    1.270930
     15          1           0        0.231751   -1.809121   -1.450690
     16          1           0       -1.583446    0.492560    1.162138
     17          1           0       -2.694223    1.793925   -1.386743
     18          1           0       -1.149786    2.193980   -0.604223
     19          1           0       -2.685520    2.543007    0.225646
     20          1           0       -4.054685   -0.252974   -0.486248
     21          1           0       -4.092827    0.493769    1.126980
     22          1           0       -3.420051   -1.138736    0.918428
     23          1           0        3.451959    0.158972   -1.449004
     24          1           0        3.137872   -1.406893   -0.666546
     25          1           0        4.297397   -0.279155    0.052492
 ---------------------------------------------------------------------

 SCF Done:  E(RB3LYP) =  -804.764775268     A.U. after    1 cycles

 Excitation energies and oscillator strengths:

 Excited State   1:      Singlet-A      8.2056 eV  151.10 nm  f=0.0358  <S**2>=0.000
      45 -> 46         0.66168
      45 -> 47        -0.15600
 This state for optimization and/or second-order correction.
 Total Energy, E(TD-HF/TD-KS) =  -804.463224396
 Copying the excited state density for this state as the 1-particle RhoCI density.

 Excited State   2:      Singlet-A      8.2841 eV  149.67 nm  f=0.0108  <S**2>=0.000
      44 -> 46         0.57019
      44 -> 47         0.23413
      44 -> 50         0.10515
      45 -> 47         0.28313

 Excited State   3:      Singlet-A      8.4187 eV  147.27 nm  f=0.0131  <S**2>=0.000
      44 -> 46        -0.34777
      44 -> 47         0.16056
      45 -> 47         0.55869

 Excited State   4:      Singlet-A      8.6536 eV  143.28 nm  f=0.0214  <S**2>=0.000
      44 -> 46        -0.10379
      44 -> 47         0.50202
      44 -> 48        -0.23155
      45 -> 47        -0.22667
      45 -> 48        -0.31414

 Excited State   5:      Singlet-A      8.7928 eV  141.01 nm  f=0.0227  <S**2>=0.000
      43 -> 46         0.65988
      43 -> 47         0.14581

 Excited State   6:      Singlet-A      8.9650 eV  138.30 nm  f=0.0299  <S**2>=0.000
      43 -> 47         0.14797
      44 -> 48         0.50716
      45 -> 48        -0.40865

 Excited State   7:      Singlet-A      9.0766 eV  136.60 nm  f=0.0193  <S**2>=0.000
      42 -> 46        -0.15480
      42 -> 47        -0.10832
      43 -> 46        -0.14576
      43 -> 47         0.45633
      43 -> 48         0.14953
      44 -> 47        -0.16331
      44 -> 48        -0.33114
      45 -> 48        -0.16255

 Excited State   8:      Singlet-A      9.1475 eV  135.54 nm  f=0.0561  <S**2>=0.000
      42 -> 46         0.21271
      42 -> 47         0.11622
      42 -> 48         0.10056
      43 -> 47         0.42837
      43 -> 48         0.11211
      44 -> 47         0.25124
      44 -> 48         0.17228
      45 -> 48         0.31252

 Excited State   9:      Singlet-A      9.2820 eV  133.57 nm  f=0.0524  <S**2>=0.000
      42 -> 46         0.55876
      42 -> 47        -0.36882

 Excited State  10:      Singlet-A      9.3702 eV  132.32 nm  f=0.0040  <S**2>=0.000
      42 -> 46         0.14806
      42 -> 47         0.36901
      43 -> 48         0.24695
      44 -> 47        -0.11561
      45 -> 48        -0.16692
      45 -> 49         0.36392
      45 -> 51        -0.20357

 The electronic state is 1-A.
 Alpha  occ. eigenvalues --  -77.20588 -19.17278 -19.17065 -19.10313 -10.25526
 Alpha  occ. eigenvalues --  -10.25260 -10.18520 -10.18468 -10.18149 -10.18099
 Alpha  occ. eigenvalues --   -6.65709  -4.82127  -4.82008  -4.81808  -1.06788
 Alpha  occ. eigenvalues --   -1.02509  -0.95294  -0.79474  -0.78274  -0.69929
 Alpha  occ. eigenvalues --   -0.69587  -0.64414  -0.59896  -0.56221  -0.52500
 Alpha  occ. eigenvalues --   -0.50053  -0.46260  -0.45324  -0.43891  -0.43678
 Alpha  occ. eigenvalues --   -0.42578  -0.40157  -0.39831  -0.39588  -0.39354
 Alpha  occ. eigenvalues --   -0.38420  -0.36858  -0.36639  -0.36159  -0.33505
 Alpha  occ. eigenvalues --   -0.32799  -0.31557  -0.30192  -0.28701  -0.27981
 Alpha virt. eigenvalues --    0.06226   0.07184   0.08925   0.10439   0.10930
 Alpha virt. eigenvalues --    0.12359   0.13296   0.13618   0.14299   0.15366
 Alpha virt. eigenvalues --    0.15457   0.16206   0.17612   0.18187   0.18702

 Mulliken atomic charges:
              1
     1  C   -0.421954
     2  C    0.148372
     3  O   -0.472190
     4  P    0.723298
     5  O   -0.237813
     6  O   -0.432070
     7  C    0.160147
     8  C   -0.432628
     9  C   -0.444116
    10  C   -0.434560
    11  H    0.127401
    12  H    0.144772
    13  H    0.119538
    14  H    0.116028
    15  H   -0.020493
    16  H    0.052635
    17  H    0.150835
    18  H    0.144640
    19  H    0.147465
    20  H    0.154893
    21  H    0.150271
    22  H    0.145088
    23  H    0.148973
    24  H    0.131237
    25  H    0.130231
 Sum of Mulliken atomic charges =  -0.00000

 Dipole moment (field-independent basis, Debye):
    X=             -0.8097    Y=              0.3178    Z=             -0.9480  Tot=              1.2866
 Quadrupole moment (field-independent basis, Debye-Ang):
   XX=            -65.6381   YY=            -71.5722   ZZ=            -72.9209
   XY=             -1.3411   XZ=             -0.6567   YZ=              2.7097

 Summary of Natural Population Analysis:

                                       Natural Population
                Natural  -----------------------------------------------
    Atom  No    Charge         Core      Valence    Rydberg      Total
 -----------------------------------------------------------------------
      C    1   -0.69476      1.99938     4.68477    0.01062     6.69476
      C    2    0.07612      1.99917     3.90516    0.01954     5.92388
      O    3   -0.81382      1.99980     6.80271    0.01132     8.81382
      P    4    1.84815      9.99883     2.93958    0.21345    13.15185
      O    5   -0.68976      1.99991     6.66388    0.02597     8.68976
      O    6   -0.72170      1.99982     6.71019    0.01168     8.72170
      C    7    0.08136      1.99913     3.89621    0.02330     5.91864
      C    8   -0.69463      1.99936     4.68511    0.01017     6.69463
      C    9   -0.69744      1.99937     4.68726    0.01081     6.69744
      C   10   -0.69947      1.99938     4.68892    0.01117     6.69947
      H   11    0.21725      0.00000     0.76804    0.01471     0.78275
      H   12    0.23071      0.00000     0.76542    0.00387     0.76929
      H   13    0.21444      0.00000     0.77625    0.00930     0.78556
      H   14    0.19965      0.00000     0.78506    0.01529     0.80035
      H   15   -0.05784      0.00000     1.05511    0.00273     1.05784
      H   16    0.14114      0.00000     0.80511    0.05375     0.85886
      H   17    0.23293      0.00000     0.76440    0.00267     0.76707
      H   18    0.22571      0.00000     0.76059    0.01369     0.77429
      H   19    0.23701      0.00000     0.75870    0.00429     0.76299
      H   20    0.23540      0.00000     0.76256    0.00204     0.76460
      H   21    0.23834      0.00000     0.75845    0.00320     0.76166
      H   22    0.22641      0.00000     0.76578    0.00780     0.77359
      H   23    0.23259      0.00000     0.76432    0.00309     0.76741
      H   24    0.21114      0.00000     0.77789    0.01098     0.78886
      H   25    0.22107      0.00000     0.77105    0.00788     0.77893
 =======================================================================
   * Total *    0.00000     27.99414    61.50253    0.50333    90.00000

 Normal termination of Gaussian 09 at Tue Oct  5 17:18:20 2021.
