 Gaussian 09, Revision A.02,

 -----------------------------------
 #p opt b3lyp/6-31G* scf=(xqc,tight)
 -----------------------------------

 ----------------
 CCP(CC)CC_conf_0
 ----------------
 Symbolic Z-matrix:
 Charge =  0 Multiplicity = 1

 SCF Done:  E(RB3LYP) =  -579.030398916     A.U. after   12 cycles
 SCF Done:  E(RB3LYP) =  -579.032438595     A.U. after   11 cycles
 SCF Done:  E(RB3LYP) =  -579.032815080     A.U. after   12 cycles
 SCF Done:  E(RB3LYP) =  -579.032879381     A.U. after   14 cycles
 SCF Done:  E(RB3LYP) =  -579.032940509     A.U. after   14 cycles
 SCF Done:  E(RB3LYP) =  -579.032913496     A.U. after   14 cycles
 SCF Done:  E(RB3LYP) =  -579.032930385     A.U. after   13 cycles
 SCF Done:  E(RB3LYP) =  -579.032923803     A.U. after    8 cycles
 SCF Done:  E(RB3LYP) =  -579.032929290     A.U. after   10 cycles
 SCF Done:  E(RB3LYP) =  -579.032958967     A.U. after    9 cycles
 SCF Done:  E(RB3LYP) =  -579.032951853     A.U. after    8 cycles
 SCF Done:  E(RB3LYP) =  -579.032959021     A.U. after    9 cycles
 SCF Done:  E(RB3LYP) =  -579.032957843     A.U. after    8 cycles
 Optimization completed.
    -- Stationary point found.
 Normal termination of Gaussian 09 at Fri Oct  1 19:40:24 2021.

 ----------------------------------------------------------------------
 #p freq b3lyp/6-31G* volume NMR pop=NPA density=current Geom=AllCheck
 Guess=Read
 ----------------------------------------------------------------------

 CCP(CC)CC_conf_0
 ----------------
 Redundant internal coordinates taken from checkpoint file:
 C6H15P_68c8_conf_0.chk
 Charge =  0 Multiplicity = 1

 SCF Done:  E(RB3LYP) =  -579.032957843     A.U. after    1 cycles

  1  C    Isotropic =   177.4714   Anisotropy =    18.8578

  2  C    Isotropic =   164.3275   Anisotropy =    19.8395

  3  P    Isotropic =   383.6699   Anisotropy =     7.7725

  4  C    Isotropic =   164.4063   Anisotropy =    19.7392

  5  C    Isotropic =   177.5472   Anisotropy =    18.7569

  6  C    Isotropic =   164.2649   Anisotropy =    20.0509

  7  C    Isotropic =   177.5696   Anisotropy =    18.7783

  8  H    Isotropic =    30.9534   Anisotropy =    10.7450

  9  H    Isotropic =    31.2019   Anisotropy =     7.5318

 10  H    Isotropic =    31.0862   Anisotropy =     8.8218

 11  H    Isotropic =    31.0616   Anisotropy =     6.3112

 12  H    Isotropic =    30.6108   Anisotropy =     7.3526

 13  H    Isotropic =    30.6025   Anisotropy =     7.3668

 14  H    Isotropic =    31.0622   Anisotropy =     6.3251

 15  H    Isotropic =    31.0944   Anisotropy =     8.8508

 16  H    Isotropic =    30.9560   Anisotropy =    10.7482

 17  H    Isotropic =    31.2059   Anisotropy =     7.5142

 18  H    Isotropic =    30.5920   Anisotropy =     7.3630

 19  H    Isotropic =    31.0678   Anisotropy =     6.3151

 20  H    Isotropic =    31.0926   Anisotropy =     8.8635

 21  H    Isotropic =    30.9553   Anisotropy =    10.7542

 22  H    Isotropic =    31.2041   Anisotropy =     7.4955

  Exact polarizability:  95.135   0.002  95.084  -0.010  -0.008  72.533
 Approx polarizability: 126.008   0.002 126.005  -0.022  -0.012 110.285

                     1                      2                      3
                     A                      A                      A
 Frequencies --    63.4650                79.5101                85.3338
 Red. masses --     2.0172                 2.1553                 2.1133
 Frc consts  --     0.0048                 0.0080                 0.0091
 IR Inten    --     0.0266                 0.2582                 0.2790

                     4                      5                      6
                     A                      A                      A
 Frequencies --   156.2439               157.6372               175.3019
 Red. masses --     1.8833                 1.9166                 1.5776
 Frc consts  --     0.0271                 0.0281                 0.0286
 IR Inten    --     0.0490                 0.0413                 0.0473

                     7                      8                      9
                     A                      A                      A
 Frequencies --   240.9786               244.6433               245.4272
 Red. masses --     1.4196                 1.5361                 1.2598
 Frc consts  --     0.0486                 0.0542                 0.0447
 IR Inten    --     0.1733                 0.1448                 0.2480

                    10                     11                     12
                     A                      A                      A
 Frequencies --   320.6911               359.8945               360.8666
 Red. masses --     2.2466                 3.2674                 3.2746
 Frc consts  --     0.1361                 0.2493                 0.2512
 IR Inten    --     0.3633                 0.7056                 0.7030

                    13                     14                     15
                     A                      A                      A
 Frequencies --   608.2833               660.4478               660.6690
 Red. masses --     3.0745                 3.4325                 3.4504
 Frc consts  --     0.6703                 0.8821                 0.8873
 IR Inten    --     0.4743                 9.6935                 9.8095

                    16                     17                     18
                     A                      A                      A
 Frequencies --   760.7025               763.4589               780.1047
 Red. masses --     1.2518                 1.2496                 1.2828
 Frc consts  --     0.4268                 0.4291                 0.4600
 IR Inten    --    10.2828                10.1857                16.8391

                    19                     20                     21
                     A                      A                      A
 Frequencies --   992.8959               993.8955               994.6817
 Red. masses --     1.4082                 1.4204                 1.4921
 Frc consts  --     0.8179                 0.8267                 0.8698
 IR Inten    --     0.5444                 1.3571                 0.4395

                    22                     23                     24
                     A                      A                      A
 Frequencies --  1006.8425              1007.3601              1015.7362
 Red. masses --     1.5402                 1.4606                 1.7080
 Frc consts  --     0.9199                 0.8733                 1.0382
 IR Inten    --     2.1184                 2.2706                 0.9556

                    25                     26                     27
                     A                      A                      A
 Frequencies --  1075.6684              1076.2756              1076.5686
 Red. masses --     1.7744                 1.7640                 1.8152
 Frc consts  --     1.2097                 1.2039                 1.2395
 IR Inten    --     6.6958                 6.8790                 9.1842

                    28                     29                     30
                     A                      A                      A
 Frequencies --  1278.2092              1282.0020              1287.3627
 Red. masses --     1.2842                 1.2695                 1.2429
 Frc consts  --     1.2362                 1.2293                 1.2137
 IR Inten    --     5.1772                 4.7311                 0.1769

                    31                     32                     33
                     A                      A                      A
 Frequencies --  1297.1951              1297.8464              1311.2296
 Red. masses --     1.3534                 1.3438                 1.3690
 Frc consts  --     1.3418                 1.3336                 1.3868
 IR Inten    --     6.4944                 6.1957                 0.8320

                    34                     35                     36
                     A                      A                      A
 Frequencies --  1440.2255              1441.0692              1441.8400
 Red. masses --     1.2139                 1.2119                 1.2120
 Frc consts  --     1.4835                 1.4828                 1.4845
 IR Inten    --     1.4104                 1.1213                 1.1287

                    37                     38                     39
                     A                      A                      A
 Frequencies --  1491.2372              1497.2984              1498.9113
 Red. masses --     1.0804                 1.0870                 1.0862
 Frc consts  --     1.4156                 1.4358                 1.4378
 IR Inten    --     1.0843                 1.8763                 1.8462

                    40                     41                     42
                     A                      A                      A
 Frequencies --  1529.6144              1530.7084              1530.9558
 Red. masses --     1.0447                 1.0442                 1.0445
 Frc consts  --     1.4401                 1.4416                 1.4424
 IR Inten    --     2.5143                 5.5923                 5.6352

                    43                     44                     45
                     A                      A                      A
 Frequencies --  1534.1174              1534.9559              1535.1136
 Red. masses --     1.0434                 1.0418                 1.0439
 Frc consts  --     1.4468                 1.4463                 1.4495
 IR Inten    --     3.7004                 2.8542                 7.3839

                    46                     47                     48
                     A                      A                      A
 Frequencies --  3024.9326              3026.6901              3027.9660
 Red. masses --     1.0628                 1.0617                 1.0615
 Frc consts  --     5.7299                 5.7304                 5.7344
 IR Inten    --    14.2446                31.5207                29.1883

                    49                     50                     51
                     A                      A                      A
 Frequencies --  3045.9290              3046.4146              3047.0720
 Red. masses --     1.0357                 1.0357                 1.0359
 Frc consts  --     5.6615                 5.6634                 5.6665
 IR Inten    --    47.5247                48.9167                 5.4114

                    52                     53                     54
                     A                      A                      A
 Frequencies --  3074.9827              3075.3305              3077.2249
 Red. masses --     1.1003                 1.1005                 1.0996
 Frc consts  --     6.1298                 6.1323                 6.1351
 IR Inten    --    12.1971                11.9142                11.9878

                    55                     56                     57
                     A                      A                      A
 Frequencies --  3107.0417              3108.3514              3108.7304
 Red. masses --     1.1022                 1.1016                 1.1015
 Frc consts  --     6.2693                 6.2711                 6.2722
 IR Inten    --     9.5532                46.1366                43.9068

                    58                     59                     60
                     A                      A                      A
 Frequencies --  3118.7419              3119.8214              3120.2802
 Red. masses --     1.1027                 1.1029                 1.1029
 Frc consts  --     6.3193                 6.3247                 6.3266
 IR Inten    --    66.5030                24.9790                21.1416

 - Thermochemistry -
 -------------------
 Temperature   298.150 Kelvin.  Pressure   1.00000 Atm.
 Atom     1 has atomic number  6 and mass  12.00000

 Molecular mass:   118.09114 amu.
 Principal axes and moments of inertia in atomic units:
                           1         2         3
     Eigenvalues --   993.64643 996.862851812.06217
           X            1.00000   0.00034   0.00001
           Y           -0.00034   1.00000  -0.00001
           Z           -0.00001   0.00001   1.00000
 This molecule is an asymmetric top.
 Rotational symmetry number  1.
 Warning -- assumption of classical behavior for rotation
           may cause significant error
 Rotational temperatures (Kelvin)      0.08717     0.08689     0.04780
 Rotational constants (GHZ):           1.81628     1.81042     0.99596
 Zero-point vibrational energy     525477.5 (Joules/Mol)
                                  125.59215 (Kcal/Mol)
 Warning -- explicit consideration of  13 degrees of freedom as
           vibrations may cause significant error
 Vibrational temperatures:     91.31   114.40   122.78   224.80   226.80
          (Kelvin)            252.22   346.71   351.99   353.11   461.40
                              517.81   519.21   875.18   950.24   950.55
                             1094.48  1098.45  1122.40  1428.55  1429.99
                             1431.12  1448.62  1449.36  1461.42  1547.64
                             1548.52  1548.94  1839.06  1844.51  1852.23
                             1866.37  1867.31  1886.56  2072.16  2073.37
                             2074.48  2145.56  2154.28  2156.60  2200.77
                             2202.35  2202.70  2207.25  2208.46  2208.68
                             4352.20  4354.73  4356.56  4382.41  4383.11
                             4384.05  4424.21  4424.71  4427.43  4470.33
                             4472.22  4472.76  4487.17  4488.72  4489.38

 Zero-point correction=                           0.200144 (Hartree/Particle)
 Thermal correction to Energy=                    0.210875
 Thermal correction to Enthalpy=                  0.211819
 Thermal correction to Gibbs Free Energy=         0.164041
 Sum of electronic and zero-point Energies=           -578.832814
 Sum of electronic and thermal Energies=              -578.822083
 Sum of electronic and thermal Enthalpies=            -578.821139
 Sum of electronic and thermal Free Energies=         -578.868917

                     E (Thermal)             CV                S
                      KCal/Mol        Cal/Mol-Kelvin    Cal/Mol-Kelvin
 Total                  132.326             37.495            100.557
 Electronic               0.000              0.000              0.000
 Translational            0.889              2.981             40.214
 Rotational               0.889              2.981             28.975
 Vibrational            130.549             31.533             31.369
 Vibration     1          0.597              1.972              4.346
 Vibration     2          0.600              1.963              3.903
 Vibration     3          0.601              1.959              3.764
 Vibration     4          0.620              1.896              2.595
 Vibration     5          0.621              1.894              2.578
 Vibration     6          0.627              1.873              2.378
 Vibration     7          0.658              1.778              1.796
 Vibration     8          0.660              1.772              1.769
 Vibration     9          0.660              1.770              1.763
 Vibration    10          0.706              1.634              1.307
 Vibration    11          0.734              1.555              1.123
 Vibration    12          0.735              1.553              1.118
 Vibration    13          0.967              1.014              0.436

 Normal termination of Gaussian 09 at Fri Oct  1 20:15:32 2021.
 Gaussian 09:  AM64L-G09RevA.02 11-Jun-2009

 ----------------------------------------------------------------------
 #p TD(NStates=10, Root=1) b3lyp/6-31G* volume pop=NPA density=current
 Geom=AllCheck Guess=Read
 ----------------------------------------------------------------------

 CCP(CC)CC_conf_0
 ----------------
 Redundant internal coordinates taken from checkpoint file:
 C6H15P_68c8_conf_0.chk
 Charge =  0 Multiplicity = 1

                         Standard orientation:
 ---------------------------------------------------------------------
 Center     Atomic      Atomic             Coordinates (Angstroms)
 Number     Number       Type             X           Y           Z
 ---------------------------------------------------------------------
      1          6           0       -2.631152   -1.051326   -0.117504
      2          6           0       -1.655874    0.021352    0.384961
      3         15           0       -0.001757   -0.000856   -0.506515
      4          6           0        0.849923    1.421080    0.379541
      5          6           0        0.400863    2.802202   -0.115679
      6          6           0        0.808676   -1.447451    0.379075
      7          6           0        2.230267   -1.744853   -0.115281
      8          1           0       -3.598044   -0.972844    0.393767
      9          1           0       -2.249048   -2.063032    0.060696
     10          1           0       -2.810661   -0.950451   -1.193677
     11          1           0       -1.500803   -0.077064    1.468846
     12          1           0       -2.091937    1.014369    0.217666
     13          1           0        1.926723    1.304900    0.202603
     14          1           0        0.697247    1.333509    1.464669
     15          1           0        0.570386    2.911215   -1.192690
     16          1           0        0.953249    3.600417    0.394385
     17          1           0       -0.665716    2.973145    0.070210
     18          1           0        0.172664   -2.324142    0.202186
     19          1           0        0.808253   -1.270903    1.464134
     20          1           0        2.241156   -1.946195   -1.192213
     21          1           0        2.647386   -2.621121    0.395250
     22          1           0        2.909290   -0.904995    0.071224
 ---------------------------------------------------------------------

 SCF Done:  E(RB3LYP) =  -579.032957843     A.U. after    1 cycles

 Excitation energies and oscillator strengths:

 Excited State   1:      Singlet-A      6.6804 eV  185.59 nm  f=0.1107  <S**2>=0.000
      33 -> 34         0.69064
 This state for optimization and/or second-order correction.
 Total Energy, E(TD-HF/TD-KS) =  -578.787456054
 Copying the excited state density for this state as the 1-particle RhoCI density.

 Excited State   2:      Singlet-A      6.6835 eV  185.51 nm  f=0.1107  <S**2>=0.000
      33 -> 35         0.69061

 Excited State   3:      Singlet-A      7.3417 eV  168.88 nm  f=0.0102  <S**2>=0.000
      33 -> 36         0.70428

 Excited State   4:      Singlet-A      7.9220 eV  156.51 nm  f=0.0117  <S**2>=0.000
      33 -> 37         0.69161

 Excited State   5:      Singlet-A      7.9275 eV  156.40 nm  f=0.0117  <S**2>=0.000
      33 -> 38         0.69142

 Excited State   6:      Singlet-A      8.2635 eV  150.04 nm  f=0.0656  <S**2>=0.000
      33 -> 39         0.69835

 Excited State   7:      Singlet-A      8.3839 eV  147.88 nm  f=0.0003  <S**2>=0.000
      31 -> 34         0.45685
      31 -> 35        -0.19502
      32 -> 34         0.19972
      32 -> 35         0.45375

 Excited State   8:      Singlet-A      8.6698 eV  143.01 nm  f=0.0930  <S**2>=0.000
      31 -> 34         0.46484
      31 -> 35        -0.11873
      32 -> 34        -0.12696
      32 -> 35        -0.46339

 Excited State   9:      Singlet-A      8.6703 eV  143.00 nm  f=0.0933  <S**2>=0.000
      31 -> 34         0.11753
      31 -> 35         0.45852
      32 -> 34         0.46966
      32 -> 35        -0.12837

 Excited State  10:      Singlet-A      8.7806 eV  141.20 nm  f=0.0481  <S**2>=0.000
      31 -> 34         0.17638
      31 -> 35         0.42202
      32 -> 34        -0.40644
      32 -> 35         0.18083
      33 -> 40         0.26098

 The electronic state is 1-A.
 Alpha  occ. eigenvalues --  -77.06336 -10.18313 -10.18313 -10.18312 -10.17691
 Alpha  occ. eigenvalues --  -10.17691 -10.17688  -6.53152  -4.69397  -4.69396
 Alpha  occ. eigenvalues --   -4.68907  -0.78010  -0.74761  -0.74756  -0.65245
 Alpha  occ. eigenvalues --   -0.60726  -0.60715  -0.51756  -0.44415  -0.44396
 Alpha  occ. eigenvalues --   -0.44266  -0.42427  -0.42420  -0.38863  -0.36943
 Alpha  occ. eigenvalues --   -0.36519  -0.36510  -0.35688  -0.34342  -0.34334
 Alpha  occ. eigenvalues --   -0.29431  -0.29422  -0.21620
 Alpha virt. eigenvalues --    0.05755   0.05770   0.08634   0.10909   0.10931
 Alpha virt. eigenvalues --    0.12086   0.14333   0.15350   0.15363   0.17165
 Alpha virt. eigenvalues --    0.17198   0.18257   0.19339   0.19360   0.20030

 Mulliken atomic charges:
              1
     1  C   -0.459922
     2  C   -0.380744
     3  P    0.273052
     4  C   -0.410784
     5  C   -0.397656
     6  C   -0.377693
     7  C   -0.417206
     8  H    0.144107
     9  H    0.153562
    10  H    0.156861
    11  H    0.160922
    12  H    0.168121
    13  H    0.174686
    14  H    0.181506
    15  H    0.148271
    16  H    0.101894
    17  H    0.128719
    18  H    0.122348
    19  H    0.138788
    20  H    0.126163
    21  H    0.133339
    22  H    0.131668
 Sum of Mulliken atomic charges =   0.00000

 Dipole moment (field-independent basis, Debye):
    X=             -0.4314    Y=              0.0443    Z=              1.1565  Tot=              1.2351
 Quadrupole moment (field-independent basis, Debye-Ang):
   XX=            -55.4012   YY=            -58.9081   ZZ=            -55.3015
   XY=              1.3525   XZ=             -0.3005   YZ=              0.6608

 Summary of Natural Population Analysis:

                                       Natural Population
                Natural  -----------------------------------------------
    Atom  No    Charge         Core      Valence    Rydberg      Total
 -----------------------------------------------------------------------
      C    1   -0.68472      1.99945     4.67538    0.00989     6.68472
      C    2   -0.79037      1.99933     4.77390    0.01713     6.79037
      P    3    0.98348      9.99759     3.88965    0.12928    14.01652
      C    4   -0.76600      1.99933     4.74705    0.01963     6.76600
      C    5   -0.68320      1.99945     4.67254    0.01121     6.68320
      C    6   -0.86561      1.99935     4.83938    0.02687     6.86561
      C    7   -0.68517      1.99946     4.67631    0.00940     6.68517
      H    8    0.22952      0.00000     0.76735    0.00313     0.77048
      H    9    0.22701      0.00000     0.77070    0.00230     0.77299
      H   10    0.22912      0.00000     0.76853    0.00234     0.77088
      H   11    0.25330      0.00000     0.74252    0.00418     0.74670
      H   12    0.25809      0.00000     0.73715    0.00476     0.74191
      H   13    0.25279      0.00000     0.74487    0.00235     0.74721
      H   14    0.26717      0.00000     0.73056    0.00227     0.73283
      H   15    0.23150      0.00000     0.76507    0.00342     0.76850
      H   16    0.20140      0.00000     0.78662    0.01198     0.79860
      H   17    0.21538      0.00000     0.77720    0.00742     0.78462
      H   18    0.22664      0.00000     0.76459    0.00877     0.77336
      H   19    0.23998      0.00000     0.75476    0.00525     0.76002
      H   20    0.21387      0.00000     0.77730    0.00883     0.78613
      H   21    0.22891      0.00000     0.76640    0.00469     0.77109
      H   22    0.21690      0.00000     0.78018    0.00293     0.78310
 =======================================================================
   * Total *   -0.00000     21.99397    43.70800    0.29804    66.00000

 Normal termination of Gaussian 09 at Fri Oct  1 23:22:23 2021.
