 Gaussian 09, Revision A.02,

 -----------------------------------
 #p opt b3lyp/6-31G* scf=(xqc,tight)
 -----------------------------------

 ---------------------
 CC(=O)C(C)(C)C_conf_0
 ---------------------
 Symbolic Z-matrix:
 Charge =  0 Multiplicity = 1

 SCF Done:  E(RB3LYP) =  -311.093678581     A.U. after   14 cycles
 SCF Done:  E(RB3LYP) =  -311.095122943     A.U. after   11 cycles
 SCF Done:  E(RB3LYP) =  -311.094441355     A.U. after   12 cycles
 SCF Done:  E(RB3LYP) =  -311.095176118     A.U. after   11 cycles
 SCF Done:  E(RB3LYP) =  -311.095288895     A.U. after   11 cycles
 SCF Done:  E(RB3LYP) =  -311.095304937     A.U. after   10 cycles
 SCF Done:  E(RB3LYP) =  -311.095321160     A.U. after   10 cycles
 SCF Done:  E(RB3LYP) =  -311.095323298     A.U. after    8 cycles
 SCF Done:  E(RB3LYP) =  -311.095323717     A.U. after    8 cycles
 SCF Done:  E(RB3LYP) =  -311.095323869     A.U. after    7 cycles
 SCF Done:  E(RB3LYP) =  -311.095323881     A.U. after    7 cycles
 Optimization completed.
    -- Stationary point found.
 Normal termination of Gaussian 09 at Mon Oct  4 09:05:28 2021.

 ----------------------------------------------------------------------
 #p freq b3lyp/6-31G* volume NMR pop=NPA density=current Geom=AllCheck
 Guess=Read
 ----------------------------------------------------------------------

 CC(=O)C(C)(C)C_conf_0
 ---------------------
 Redundant internal coordinates taken from checkpoint file:
 C6H12O_4e34_conf_0.chk
 Charge =  0 Multiplicity = 1

 SCF Done:  E(RB3LYP) =  -311.095323881     A.U. after    1 cycles

  1  C    Isotropic =   165.3638   Anisotropy =    36.2804

  2  C    Isotropic =   -13.1429   Anisotropy =   173.8571

  3  O    Isotropic =  -287.4397   Anisotropy =   950.1738

  4  C    Isotropic =   144.2560   Anisotropy =    28.1114

  5  C    Isotropic =   161.9480   Anisotropy =    38.4507

  6  C    Isotropic =   163.9536   Anisotropy =    29.1774

  7  C    Isotropic =   163.6511   Anisotropy =    32.9743

  8  H    Isotropic =    30.6089   Anisotropy =     7.1404

  9  H    Isotropic =    30.1858   Anisotropy =     5.1945

 10  H    Isotropic =    29.8364   Anisotropy =     3.9963

 11  H    Isotropic =    31.1420   Anisotropy =     8.3681

 12  H    Isotropic =    30.9331   Anisotropy =     7.0397

 13  H    Isotropic =    31.1031   Anisotropy =     7.1351

 14  H    Isotropic =    30.5220   Anisotropy =     8.3700

 15  H    Isotropic =    31.7123   Anisotropy =     6.9818

 16  H    Isotropic =    31.1397   Anisotropy =     8.4318

 17  H    Isotropic =    30.7737   Anisotropy =     6.4999

 18  H    Isotropic =    31.0573   Anisotropy =     8.2153

 19  H    Isotropic =    31.1213   Anisotropy =     7.0553

  Exact polarizability:  68.570  -0.205  66.834  -0.174  -0.012  58.144
 Approx polarizability:  89.004   4.912 100.741  -0.668  -0.404  80.433

                     1                      2                      3
                     A                      A                      A
 Frequencies --    49.1967               144.5135               198.4644
 Red. masses --     3.9617                 1.0277                 1.1587
 Frc consts  --     0.0056                 0.0126                 0.0269
 IR Inten    --     2.7619                 0.1570                 0.0979

                     4                      5                      6
                     A                      A                      A
 Frequencies --   226.3690               260.9131               263.4206
 Red. masses --     1.5191                 1.0497                 2.2034
 Frc consts  --     0.0459                 0.0421                 0.0901
 IR Inten    --     0.0781                 0.0546                 2.6141

                     7                      8                      9
                     A                      A                      A
 Frequencies --   282.0445               347.1199               359.8522
 Red. masses --     1.4255                 2.4357                 2.8238
 Frc consts  --     0.0668                 0.1729                 0.2154
 IR Inten    --     0.5594                 1.3330                 2.0578

                    10                     11                     12
                     A                      A                      A
 Frequencies --   371.7242               459.6097               554.1622
 Red. masses --     2.2459                 2.5657                 3.7344
 Frc consts  --     0.1828                 0.3193                 0.6757
 IR Inten    --     0.1189                 1.9793                 7.7829

                    13                     14                     15
                     A                      A                      A
 Frequencies --   611.5947               670.9051               838.7977
 Red. masses --     2.3733                 3.2902                 2.5058
 Frc consts  --     0.5230                 0.8725                 1.0387
 IR Inten    --     0.2116                 4.3699                 3.7183

                    16                     17                     18
                     A                      A                      A
 Frequencies --   943.8495               953.0555               966.7268
 Red. masses --     1.9026                 1.8793                 1.6132
 Frc consts  --     0.9987                 1.0057                 0.8883
 IR Inten    --     0.7653                 1.9893                16.7244

                    19                     20                     21
                     A                      A                      A
 Frequencies --   977.4664              1005.8643              1067.9607
 Red. masses --     1.2033                 1.4051                 1.4216
 Frc consts  --     0.6774                 0.8376                 0.9553
 IR Inten    --     0.0764                 1.8612                 0.0925

                    22                     23                     24
                     A                      A                      A
 Frequencies --  1080.4913              1165.4326              1236.4949
 Red. masses --     1.6584                 2.3021                 2.6034
 Frc consts  --     1.1407                 1.8423                 2.3452
 IR Inten    --     1.2745                73.0331                 2.4367

                    25                     26                     27
                     A                      A                      A
 Frequencies --  1259.4435              1306.1666              1409.4303
 Red. masses --     2.8408                 2.9402                 1.2981
 Frc consts  --     2.6549                 2.9555                 1.5193
 IR Inten    --     3.1329                10.3454                30.5343

                    28                     29                     30
                     A                      A                      A
 Frequencies --  1424.9708              1429.4552              1457.8010
 Red. masses --     1.2051                 1.2269                 1.2159
 Frc consts  --     1.4417                 1.4770                 1.5225
 IR Inten    --     3.3486                 7.2920                 3.2501

                    31                     32                     33
                     A                      A                      A
 Frequencies --  1494.0399              1505.1760              1510.9531
 Red. masses --     1.0515                 1.0535                 1.0488
 Frc consts  --     1.3828                 1.4062                 1.4108
 IR Inten    --     8.7163                 7.9360                 1.3650

                    34                     35                     36
                     A                      A                      A
 Frequencies --  1515.5337              1518.6627              1531.9983
 Red. masses --     1.0448                 1.0458                 1.0507
 Frc consts  --     1.4138                 1.4210                 1.4529
 IR Inten    --     0.7073                 0.9197                 4.8107

                    37                     38                     39
                     A                      A                      A
 Frequencies --  1536.5758              1548.4177              1801.7769
 Red. masses --     1.0502                 1.0636                10.9606
 Frc consts  --     1.4609                 1.5025                20.9646
 IR Inten    --     8.0088                17.2661               139.0064

                    40                     41                     42
                     A                      A                      A
 Frequencies --  3044.2959              3047.2948              3055.6835
 Red. masses --     1.0348                 1.0350                 1.0388
 Frc consts  --     5.6507                 5.6629                 5.7150
 IR Inten    --    23.9451                17.1755                 9.3358

                    43                     44                     45
                     A                      A                      A
 Frequencies --  3058.4051              3109.1536              3112.5230
 Red. masses --     1.0377                 1.1025                 1.1018
 Frc consts  --     5.7190                 6.2793                 6.2890
 IR Inten    --    16.2438                 7.8535                12.5944

                    46                     47                     48
                     A                      A                      A
 Frequencies --  3117.6778              3118.6155              3121.4500
 Red. masses --     1.0987                 1.1022                 1.1017
 Frc consts  --     6.2923                 6.3156                 6.3243
 IR Inten    --    11.9818                27.5886                46.5690

                    49                     50                     51
                     A                      A                      A
 Frequencies --  3123.6007              3145.8789              3164.7579
 Red. masses --     1.1009                 1.1006                 1.1030
 Frc consts  --     6.3287                 6.4175                 6.5089
 IR Inten    --    39.7342                19.8561                12.0988

 - Thermochemistry -
 -------------------
 Temperature   298.150 Kelvin.  Pressure   1.00000 Atm.
 Atom     1 has atomic number  6 and mass  12.00000

 Molecular mass:   100.08882 amu.
 Principal axes and moments of inertia in atomic units:
                           1         2         3
     Eigenvalues --   569.70148 790.71125 949.61841
           X            0.99414  -0.10808   0.00085
           Y            0.10808   0.99414   0.00364
           Z           -0.00124  -0.00352   0.99999
 This molecule is an asymmetric top.
 Rotational symmetry number  1.
 Warning -- assumption of classical behavior for rotation
           may cause significant error
 Rotational temperatures (Kelvin)      0.15203     0.10954     0.09121
 Rotational constants (GHZ):           3.16787     2.28243     1.90049
 Zero-point vibrational energy     445643.5 (Joules/Mol)
                                  106.51134 (Kcal/Mol)
 Warning -- explicit consideration of  13 degrees of freedom as
           vibrations may cause significant error
 Vibrational temperatures:     70.78   207.92   285.55   325.69   375.40
          (Kelvin)            379.00   405.80   499.43   517.75   534.83
                              661.28   797.31   879.95   965.28  1206.84
                             1357.99  1371.23  1390.90  1406.35  1447.21
                             1536.56  1554.58  1676.80  1779.04  1812.06
                             1879.28  2027.85  2050.21  2056.66  2097.45
                             2149.59  2165.61  2173.92  2180.51  2185.01
                             2204.20  2210.79  2227.82  2592.35  4380.06
                             4384.37  4396.44  4400.36  4473.37  4478.22
                             4485.64  4486.99  4491.06  4494.16  4526.21
                             4553.38

 Zero-point correction=                           0.169737 (Hartree/Particle)
 Thermal correction to Energy=                    0.178752
 Thermal correction to Enthalpy=                  0.179696
 Thermal correction to Gibbs Free Energy=         0.136779
 Sum of electronic and zero-point Energies=           -310.925587
 Sum of electronic and thermal Energies=              -310.916572
 Sum of electronic and thermal Enthalpies=            -310.915628
 Sum of electronic and thermal Free Energies=         -310.958545

                     E (Thermal)             CV                S
                      KCal/Mol        Cal/Mol-Kelvin    Cal/Mol-Kelvin
 Total                  112.168             32.662             90.327
 Electronic               0.000              0.000              0.000
 Translational            0.889              2.981             39.721
 Rotational               0.889              2.981             27.550
 Vibrational            110.391             26.701             23.057
 Vibration     1          0.595              1.978              4.849
 Vibration     2          0.616              1.909              2.743
 Vibration     3          0.637              1.842              2.147
 Vibration     4          0.650              1.801              1.908
 Vibration     5          0.669              1.744              1.656
 Vibration     6          0.670              1.740              1.639
 Vibration     7          0.681              1.707              1.521
 Vibration     8          0.725              1.581              1.179
 Vibration     9          0.734              1.555              1.123
 Vibration    10          0.743              1.530              1.073
 Vibration    11          0.818              1.340              0.767
 Vibration    12          0.910              1.131              0.536
 Vibration    13          0.971              1.007              0.430

 Optimization completed.
    -- Stationary point found.
 Normal termination of Gaussian 09 at Mon Oct  4 09:27:11 2021.
 Gaussian 09:  AM64L-G09RevA.02 11-Jun-2009

 ----------------------------------------------------------------------
 #p TD(NStates=10, Root=1) b3lyp/6-31G* volume pop=NPA density=current
 Geom=AllCheck Guess=Read
 ----------------------------------------------------------------------

 CC(=O)C(C)(C)C_conf_0
 ---------------------
 Redundant internal coordinates taken from checkpoint file:
 C6H12O_4e34_conf_0.chk
 Charge =  0 Multiplicity = 1

                         Standard orientation:
 ---------------------------------------------------------------------
 Center     Atomic      Atomic             Coordinates (Angstroms)
 Number     Number       Type             X           Y           Z
 ---------------------------------------------------------------------
      1          6           0        1.950228   -0.793285   -0.008459
      2          6           0        0.908948    0.319177   -0.019884
      3          8           0        1.261630    1.484260   -0.029981
      4          6           0       -0.587265   -0.065145   -0.007702
      5          6           0       -0.941943   -0.519709    1.429646
      6          6           0       -1.431819    1.164224   -0.378469
      7          6           0       -0.867484   -1.215787   -0.997169
      8          1           0        2.919199   -0.368331    0.261406
      9          1           0        2.030427   -1.234255   -1.010180
     10          1           0        1.693782   -1.605131    0.680024
     11          1           0       -0.746992    0.278413    2.154616
     12          1           0       -0.374226   -1.405654    1.735308
     13          1           0       -2.007111   -0.773679    1.485297
     14          1           0       -1.234957    1.996693    0.301772
     15          1           0       -2.498655    0.916469   -0.332148
     16          1           0       -1.203128    1.509094   -1.392504
     17          1           0       -0.320780   -2.128816   -0.738111
     18          1           0       -0.598190   -0.936623   -2.022945
     19          1           0       -1.936398   -1.459116   -0.990464
 ---------------------------------------------------------------------

 SCF Done:  E(RB3LYP) =  -311.095323881     A.U. after    1 cycles

 Excitation energies and oscillator strengths:

 Excited State   1:      Singlet-A      4.3184 eV  287.11 nm  f=0.0002  <S**2>=0.000
      28 -> 29         0.70463
 This state for optimization and/or second-order correction.
 Total Energy, E(TD-HF/TD-KS) =  -310.936625423
 Copying the excited state density for this state as the 1-particle RhoCI density.

 Excited State   2:      Singlet-A      7.5040 eV  165.22 nm  f=0.0053  <S**2>=0.000
      28 -> 30         0.70501

 Excited State   3:      Singlet-A      7.5700 eV  163.78 nm  f=0.0028  <S**2>=0.000
      26 -> 29         0.62088
      27 -> 29        -0.32285

 Excited State   4:      Singlet-A      7.8272 eV  158.40 nm  f=0.0367  <S**2>=0.000
      24 -> 29         0.22978
      25 -> 29         0.12717
      26 -> 29         0.31563
      27 -> 29         0.56844

 Excited State   5:      Singlet-A      7.9276 eV  156.40 nm  f=0.0065  <S**2>=0.000
      24 -> 29        -0.40871
      25 -> 29         0.55949

 Excited State   6:      Singlet-A      8.7348 eV  141.94 nm  f=0.0301  <S**2>=0.000
      23 -> 29        -0.18248
      24 -> 29         0.23444
      25 -> 29         0.17866
      28 -> 31         0.59151
      28 -> 33         0.10542

 Excited State   7:      Singlet-A      8.7823 eV  141.18 nm  f=0.0012  <S**2>=0.000
      23 -> 29         0.66804
      28 -> 31         0.22036

 Excited State   8:      Singlet-A      8.9745 eV  138.15 nm  f=0.0209  <S**2>=0.000
      24 -> 29         0.21934
      25 -> 29         0.16442
      28 -> 31        -0.16862
      28 -> 32         0.52861
      28 -> 33         0.28654

 Excited State   9:      Singlet-A      8.9925 eV  137.88 nm  f=0.0174  <S**2>=0.000
      19 -> 29        -0.18886
      22 -> 29         0.50886
      24 -> 29        -0.13233
      25 -> 29        -0.17862
      28 -> 31         0.19465
      28 -> 32         0.30369

 Excited State  10:      Singlet-A      9.0798 eV  136.55 nm  f=0.0387  <S**2>=0.000
      19 -> 29        -0.17156
      22 -> 29         0.35355
      24 -> 29         0.20522
      25 -> 29         0.11592
      28 -> 31        -0.14838
      28 -> 32        -0.34552
      28 -> 33         0.35092

 The electronic state is 1-A.
 Alpha  occ. eigenvalues --  -19.13341 -10.26995 -10.20581 -10.18787 -10.18543
 Alpha  occ. eigenvalues --  -10.18453 -10.17000  -1.03356  -0.81968  -0.73667
 Alpha  occ. eigenvalues --   -0.69343  -0.68278  -0.60585  -0.50206  -0.47567
 Alpha  occ. eigenvalues --   -0.45322  -0.44943  -0.42861  -0.41796  -0.40501
 Alpha  occ. eigenvalues --   -0.38909  -0.38516  -0.36976  -0.35446  -0.35095
 Alpha  occ. eigenvalues --   -0.33160  -0.32841  -0.23751
 Alpha virt. eigenvalues --   -0.00982   0.07153   0.11807   0.12805   0.13303
 Alpha virt. eigenvalues --    0.14846   0.15328   0.15902   0.17168   0.18976
 Alpha virt. eigenvalues --    0.19246   0.20721   0.21163   0.22250   0.23076

 Mulliken atomic charges:
              1
     1  C   -0.499394
     2  C    0.285844
     3  O   -0.327995
     4  C    0.046232
     5  C   -0.438295
     6  C   -0.447786
     7  C   -0.446180
     8  H    0.170592
     9  H    0.163657
    10  H    0.162864
    11  H    0.155225
    12  H    0.142541
    13  H    0.137412
    14  H    0.159236
    15  H    0.138491
    16  H    0.153754
    17  H    0.146463
    18  H    0.151328
    19  H    0.146011
 Sum of Mulliken atomic charges =   0.00000

 Dipole moment (field-independent basis, Debye):
    X=             -0.7166    Y=             -1.7568    Z=             -0.0133  Tot=              1.8974
 Quadrupole moment (field-independent basis, Debye-Ang):
   XX=            -43.7248   YY=            -46.9152   ZZ=            -44.8610
   XY=             -2.7958   XZ=              0.2491   YZ=              0.1221

 Summary of Natural Population Analysis:

                                       Natural Population
                Natural  -----------------------------------------------
    Atom  No    Charge         Core      Valence    Rydberg      Total
 -----------------------------------------------------------------------
      C    1   -0.69730      1.99932     4.69068    0.00730     6.69730
      C    2    0.25044      1.99929     3.71054    0.03973     5.74956
      O    3   -0.29983      1.99981     6.28052    0.01950     8.29983
      C    4   -0.07858      1.99906     4.06647    0.01304     6.07858
      C    5   -0.66780      1.99936     4.65818    0.01026     6.66780
      C    6   -0.67101      1.99938     4.66081    0.01082     6.67101
      C    7   -0.67124      1.99936     4.66223    0.00964     6.67124
      H    8    0.25078      0.00000     0.74764    0.00158     0.74922
      H    9    0.23251      0.00000     0.76465    0.00283     0.76749
      H   10    0.23528      0.00000     0.76307    0.00165     0.76472
      H   11    0.23970      0.00000     0.75941    0.00089     0.76030
      H   12    0.22881      0.00000     0.77034    0.00085     0.77119
      H   13    0.22839      0.00000     0.76962    0.00199     0.77161
      H   14    0.24203      0.00000     0.75687    0.00110     0.75797
      H   15    0.23080      0.00000     0.76824    0.00096     0.76920
      H   16    0.23955      0.00000     0.75942    0.00103     0.76045
      H   17    0.23234      0.00000     0.76683    0.00082     0.76766
      H   18    0.23804      0.00000     0.76079    0.00116     0.76196
      H   19    0.23706      0.00000     0.76156    0.00138     0.76294
 =======================================================================
   * Total *    0.00000     13.99558    41.87788    0.12654    56.00000

 Normal termination of Gaussian 09 at Mon Oct  4 11:29:00 2021.
