 Gaussian 09, Revision A.02,

 -----------------------------------
 #p opt b3lyp/6-31G* scf=(xqc,tight)
 -----------------------------------

 -------------------------
 CN(P(N(C)C)N(C)C)C_conf_0
 -------------------------
 Symbolic Z-matrix:
 Charge =  0 Multiplicity = 1

 SCF Done:  E(RB3LYP) =  -745.037508982     A.U. after   14 cycles
 SCF Done:  E(RB3LYP) =  -745.054602863     A.U. after   12 cycles
 SCF Done:  E(RB3LYP) =  -745.064063643     A.U. after   12 cycles
 SCF Done:  E(RB3LYP) =  -745.066555126     A.U. after   13 cycles
 SCF Done:  E(RB3LYP) =  -745.067992079     A.U. after   12 cycles
 SCF Done:  E(RB3LYP) =  -745.068702425     A.U. after   15 cycles
 SCF Done:  E(RB3LYP) =  -745.068751460     A.U. after   15 cycles
 SCF Done:  E(RB3LYP) =  -745.068970535     A.U. after   12 cycles
 SCF Done:  E(RB3LYP) =  -745.068986559     A.U. after   10 cycles
 SCF Done:  E(RB3LYP) =  -745.068989440     A.U. after    8 cycles
 SCF Done:  E(RB3LYP) =  -745.068990058     A.U. after    8 cycles
 SCF Done:  E(RB3LYP) =  -745.068990491     A.U. after    7 cycles
 Optimization completed.
    -- Stationary point found.
 Normal termination of Gaussian 09 at Fri Oct  1 20:25:27 2021.

 ----------------------------------------------------------------------
 #p freq b3lyp/6-31G* volume NMR pop=NPA density=current Geom=AllCheck
 Guess=Read
 ----------------------------------------------------------------------

 CN(P(N(C)C)N(C)C)C_conf_0
 -------------------------
 Redundant internal coordinates taken from checkpoint file:
 C6H18N3P_8ec3_conf_0.chk
 Charge =  0 Multiplicity = 1

 SCF Done:  E(RB3LYP) =  -745.068990491     A.U. after    1 cycles

  1  C    Isotropic =   151.5099   Anisotropy =    53.1474

  2  N    Isotropic =   215.5331   Anisotropy =    41.4161

  3  P    Isotropic =   248.5354   Anisotropy =   125.7585

  4  N    Isotropic =   204.1347   Anisotropy =    70.9842

  5  C    Isotropic =   155.5642   Anisotropy =    44.3668

  6  C    Isotropic =   150.0687   Anisotropy =    56.1169

  7  N    Isotropic =   204.0963   Anisotropy =    71.0488

  8  C    Isotropic =   150.0609   Anisotropy =    56.1196

  9  C    Isotropic =   155.5577   Anisotropy =    44.3765

 10  C    Isotropic =   151.5092   Anisotropy =    53.1679

 11  H    Isotropic =    29.6184   Anisotropy =     6.6205

 12  H    Isotropic =    30.1803   Anisotropy =     9.6410

 13  H    Isotropic =    30.1028   Anisotropy =     9.6281

 14  H    Isotropic =    28.6490   Anisotropy =     4.6526

 15  H    Isotropic =    30.1847   Anisotropy =     9.8700

 16  H    Isotropic =    30.0793   Anisotropy =     9.0913

 17  H    Isotropic =    29.2701   Anisotropy =     7.8638

 18  H    Isotropic =    29.7525   Anisotropy =     9.7026

 19  H    Isotropic =    29.8113   Anisotropy =    10.0860

 20  H    Isotropic =    29.2704   Anisotropy =     7.8629

 21  H    Isotropic =    29.8114   Anisotropy =    10.0850

 22  H    Isotropic =    29.7526   Anisotropy =     9.7029

 23  H    Isotropic =    28.6526   Anisotropy =     4.6557

 24  H    Isotropic =    30.0785   Anisotropy =     9.0877

 25  H    Isotropic =    30.1848   Anisotropy =     9.8678

 26  H    Isotropic =    30.1027   Anisotropy =     9.6289

 27  H    Isotropic =    30.1809   Anisotropy =     9.6402

 28  H    Isotropic =    29.6196   Anisotropy =     6.6232

  Exact polarizability: 117.548   0.000 116.350   0.003  -1.040  94.208
 Approx polarizability: 157.704  -0.006 153.955   0.008   0.083 136.829

                     1                      2                      3
                     A                      A                      A
 Frequencies --    55.1968                86.2668                99.5242
 Red. masses --     2.6767                 2.5856                 2.6971
 Frc consts  --     0.0048                 0.0113                 0.0157
 IR Inten    --     0.6458                 0.2548                 0.0006

                     4                      5                      6
                     A                      A                      A
 Frequencies --   114.1707               122.5020               156.5925
 Red. masses --     1.9831                 2.2353                 1.8930
 Frc consts  --     0.0152                 0.0198                 0.0273
 IR Inten    --     2.2518                 1.0709                 0.5447

                     7                      8                      9
                     A                      A                      A
 Frequencies --   191.3942               212.0695               221.6809
 Red. masses --     2.2031                 1.0920                 1.4744
 Frc consts  --     0.0475                 0.0289                 0.0427
 IR Inten    --     0.7244                 0.0817                 0.4109

                    10                     11                     12
                     A                      A                      A
 Frequencies --   224.3790               232.5051               261.2147
 Red. masses --     1.1500                 1.0986                 1.4278
 Frc consts  --     0.0341                 0.0350                 0.0574
 IR Inten    --     0.0230                 0.2539                 4.4542

                    13                     14                     15
                     A                      A                      A
 Frequencies --   277.7311               310.7823               320.8769
 Red. masses --     1.0815                 2.9337                 2.6086
 Frc consts  --     0.0491                 0.1669                 0.1582
 IR Inten    --     0.0999                 6.5245                 3.3386

                    16                     17                     18
                     A                      A                      A
 Frequencies --   342.2872               355.2290               355.5550
 Red. masses --     3.0485                 2.8735                 3.5692
 Frc consts  --     0.2104                 0.2136                 0.2658
 IR Inten    --     5.3521                 0.5540                 9.6070

                    19                     20                     21
                     A                      A                      A
 Frequencies --   420.5188               421.5368               496.0254
 Red. masses --     2.9487                 3.1655                 3.4244
 Frc consts  --     0.3072                 0.3314                 0.4964
 IR Inten    --     8.1935                 1.1403                 1.8264

                    22                     23                     24
                     A                      A                      A
 Frequencies --   632.8432               662.1683               662.7879
 Red. masses --     5.0384                 5.3850                 6.1976
 Frc consts  --     1.1889                 1.3911                 1.6041
 IR Inten    --    34.7637                97.7272                31.6773

                    25                     26                     27
                     A                      A                      A
 Frequencies --   962.5467               970.2863               996.2142
 Red. masses --     3.0784                 2.8033                 2.7386
 Frc consts  --     1.6804                 1.5549                 1.6013
 IR Inten    --   219.5871               220.4487                37.6287

                    28                     29                     30
                     A                      A                      A
 Frequencies --  1080.6436              1089.3563              1092.7191
 Red. masses --     1.5495                 1.4158                 1.4027
 Frc consts  --     1.0661                 0.9899                 0.9868
 IR Inten    --    11.3369                 2.4764                 9.9172

                    31                     32                     33
                     A                      A                      A
 Frequencies --  1133.4495              1136.7021              1137.9336
 Red. masses --     1.2214                 1.2182                 1.2237
 Frc consts  --     0.9245                 0.9274                 0.9336
 IR Inten    --     1.1421                 3.7674                 0.5605

                    34                     35                     36
                     A                      A                      A
 Frequencies --  1180.7482              1181.4248              1186.9121
 Red. masses --     1.3610                 1.3689                 1.4112
 Frc consts  --     1.1180                 1.1258                 1.1713
 IR Inten    --     3.2555                 5.4810                 1.5382

                    37                     38                     39
                     A                      A                      A
 Frequencies --  1193.4095              1229.3830              1237.7465
 Red. masses --     3.7170                 4.7039                 4.9722
 Frc consts  --     3.1191                 4.1888                 4.4881
 IR Inten    --    39.2607                 6.7285               107.1453

                    40                     41                     42
                     A                      A                      A
 Frequencies --  1283.5801              1309.2757              1310.2407
 Red. masses --     1.9240                 2.1386                 2.1432
 Frc consts  --     1.8677                 2.1600                 2.1677
 IR Inten    --     9.6007                35.3999                14.4572

                    43                     44                     45
                     A                      A                      A
 Frequencies --  1456.0285              1459.2069              1463.6317
 Red. masses --     1.1416                 1.1383                 1.1404
 Frc consts  --     1.4259                 1.4281                 1.4393
 IR Inten    --     0.5442                 0.3947                 1.1580

                    46                     47                     48
                     A                      A                      A
 Frequencies --  1484.2021              1485.5207              1492.4773
 Red. masses --     1.1619                 1.1607                 1.1659
 Frc consts  --     1.5081                 1.5092                 1.5302
 IR Inten    --     1.0641                 0.4421                 1.4602

                    49                     50                     51
                     A                      A                      A
 Frequencies --  1506.8680              1509.9017              1512.6269
 Red. masses --     1.0481                 1.0518                 1.0469
 Frc consts  --     1.4022                 1.4127                 1.4113
 IR Inten    --     4.9365                 2.4793                 0.0377

                    52                     53                     54
                     A                      A                      A
 Frequencies --  1521.2548              1526.7873              1530.8065
 Red. masses --     1.0473                 1.0527                 1.0492
 Frc consts  --     1.4280                 1.4458                 1.4486
 IR Inten    --    30.7019                 2.8754                 0.1740

                    55                     56                     57
                     A                      A                      A
 Frequencies --  1533.2263              1535.8348              1539.3211
 Red. masses --     1.0482                 1.0485                 1.0509
 Frc consts  --     1.4518                 1.4571                 1.4671
 IR Inten    --     1.9418                 5.0479                37.9864

                    58                     59                     60
                     A                      A                      A
 Frequencies --  1547.0396              1553.0475              1558.6259
 Red. masses --     1.0472                 1.0592                 1.0534
 Frc consts  --     1.4767                 1.5052                 1.5077
 IR Inten    --     5.2008                 0.6293                 1.4385

                    61                     62                     63
                     A                      A                      A
 Frequencies --  2962.0182              2966.8928              2978.5676
 Red. masses --     1.0583                 1.0605                 1.0487
 Frc consts  --     5.4704                 5.5001                 5.4818
 IR Inten    --    32.0650               201.1952                20.3984

                    64                     65                     66
                     A                      A                      A
 Frequencies --  2980.9352              2984.7635              2992.0494
 Red. masses --     1.0481                 1.0502                 1.0501
 Frc consts  --     5.4872                 5.5125                 5.5386
 IR Inten    --   106.7748                22.3707               188.4060

                    67                     68                     69
                     A                      A                      A
 Frequencies --  3033.2251              3035.3728              3037.2110
 Red. masses --     1.0890                 1.0895                 1.0949
 Frc consts  --     5.9030                 5.9141                 5.9506
 IR Inten    --   208.8684                15.3225                 1.3069

                    70                     71                     72
                     A                      A                      A
 Frequencies --  3039.0889              3063.7592              3064.6094
 Red. masses --     1.0967                 1.0836                 1.0800
 Frc consts  --     5.9677                 5.9925                 5.9763
 IR Inten    --    12.3137                 7.4213                85.4453

                    73                     74                     75
                     A                      A                      A
 Frequencies --  3122.4214              3122.8535              3148.0378
 Red. masses --     1.0957                 1.0957                 1.0947
 Frc consts  --     6.2940                 6.2957                 6.3917
 IR Inten    --     5.5311                24.7680                 4.8630

                    76                     77                     78
                     A                      A                      A
 Frequencies --  3154.8397              3161.0644              3161.1264
 Red. masses --     1.0933                 1.0945                 1.0941
 Frc consts  --     6.4115                 6.4434                 6.4416
 IR Inten    --    16.9511                 8.3801                20.6721

 - Thermochemistry -
 -------------------
 Temperature   298.150 Kelvin.  Pressure   1.00000 Atm.
 Atom     1 has atomic number  6 and mass  12.00000

 Molecular mass:   163.12384 amu.
 Principal axes and moments of inertia in atomic units:
                           1         2         3
     Eigenvalues --  1566.387471624.235082405.50687
           X            1.00000   0.00033   0.00000
           Y           -0.00033   1.00000  -0.00176
           Z           -0.00000   0.00176   1.00000
 This molecule is an asymmetric top.
 Rotational symmetry number  1.
 Warning -- assumption of classical behavior for rotation
           may cause significant error
 Rotational temperatures (Kelvin)      0.05530     0.05333     0.03601
 Rotational constants (GHZ):           1.15217     1.11113     0.75025
 Zero-point vibrational energy     658984.8 (Joules/Mol)
                                  157.50114 (Kcal/Mol)
 Warning -- explicit consideration of  21 degrees of freedom as
           vibrations may cause significant error
 Vibrational temperatures:     79.42   124.12   143.19   164.27   176.25
          (Kelvin)            225.30   275.37   305.12   318.95   322.83
                              334.52   375.83   399.59   447.15   461.67
                              492.47   511.09   511.56   605.03   606.50
                              713.67   910.52   952.71   953.60  1384.89
                             1396.02  1433.33  1554.80  1567.34  1572.18
                             1630.78  1635.46  1637.23  1698.83  1699.80
                             1707.70  1717.05  1768.81  1780.84  1846.78
                             1883.75  1885.14  2094.90  2099.47  2105.84
                             2135.43  2137.33  2147.34  2168.04  2172.41
                             2176.33  2188.74  2196.70  2202.49  2205.97
                             2209.72  2214.74  2225.84  2234.49  2242.51
                             4261.68  4268.69  4285.49  4288.90  4294.40
                             4304.89  4364.13  4367.22  4369.86  4372.57
                             4408.06  4409.28  4492.46  4493.08  4529.32
                             4539.10  4548.06  4548.15

 Zero-point correction=                           0.250994 (Hartree/Particle)
 Thermal correction to Energy=                    0.265350
 Thermal correction to Enthalpy=                  0.266294
 Thermal correction to Gibbs Free Energy=         0.211124
 Sum of electronic and zero-point Energies=           -744.817996
 Sum of electronic and thermal Energies=              -744.803641
 Sum of electronic and thermal Enthalpies=            -744.802696
 Sum of electronic and thermal Free Energies=         -744.857866

                     E (Thermal)             CV                S
                      KCal/Mol        Cal/Mol-Kelvin    Cal/Mol-Kelvin
 Total                  166.510             50.835            116.115
 Electronic               0.000              0.000              0.000
 Translational            0.889              2.981             41.177
 Rotational               0.889              2.981             30.194
 Vibrational            164.732             44.874             44.745
 Vibration     1          0.596              1.975              4.622
 Vibration     2          0.601              1.959              3.743
 Vibration     3          0.604              1.949              3.464
 Vibration     4          0.607              1.938              3.197
 Vibration     5          0.610              1.930              3.061
 Vibration     6          0.620              1.895              2.591
 Vibration     7          0.634              1.852              2.214
 Vibration     8          0.643              1.822              2.026
 Vibration     9          0.648              1.808              1.945
 Vibration    10          0.649              1.804              1.923
 Vibration    11          0.653              1.791              1.860
 Vibration    12          0.669              1.744              1.654
 Vibration    13          0.679              1.715              1.548
 Vibration    14          0.700              1.653              1.358
 Vibration    15          0.706              1.634              1.306
 Vibration    16          0.721              1.591              1.201
 Vibration    17          0.731              1.565              1.143
 Vibration    18          0.731              1.564              1.141
 Vibration    19          0.783              1.426              0.890
 Vibration    20          0.784              1.423              0.887
 Vibration    21          0.852              1.259              0.668

 Normal termination of Gaussian 09 at Fri Oct  1 21:39:24 2021.
 Gaussian 09:  AM64L-G09RevA.02 11-Jun-2009

 ----------------------------------------------------------------------
 #p TD(NStates=10, Root=1) b3lyp/6-31G* volume pop=NPA density=current
 Geom=AllCheck Guess=Read
 ----------------------------------------------------------------------

 CN(P(N(C)C)N(C)C)C_conf_0
 -------------------------
 Redundant internal coordinates taken from checkpoint file:
 C6H18N3P_8ec3_conf_0.chk
 Charge =  0 Multiplicity = 1

                         Standard orientation:
 ---------------------------------------------------------------------
 Center     Atomic      Atomic             Coordinates (Angstroms)
 Number     Number       Type             X           Y           Z
 ---------------------------------------------------------------------
      1          6           0       -1.194581    2.335041   -0.162110
      2          7           0        0.003636    1.526828    0.075005
      3         15           0       -0.000238   -0.040984   -0.742389
      4          7           0        1.422151   -0.675223    0.000981
      5          6           0        1.705853   -0.649950    1.429081
      6          6           0        2.142468   -1.713948   -0.720363
      7          7           0       -1.425401   -0.668667    0.001317
      8          6           0       -2.151758   -1.702776   -0.720604
      9          6           0       -1.706954   -0.644236    1.429853
     10          6           0        1.205090    2.329686   -0.164508
     11          1           0       -2.093870    1.743553    0.015102
     12          1           0       -1.244637    2.739971   -1.189444
     13          1           0       -1.195152    3.186452    0.530481
     14          1           0        1.176828    0.183253    1.895511
     15          1           0        2.783912   -0.510349    1.597986
     16          1           0        1.410230   -1.586389    1.931174
     17          1           0        1.889744   -1.672188   -1.784145
     18          1           0        1.907972   -2.726718   -0.350311
     19          1           0        3.228150   -1.568734   -0.619329
     20          1           0       -1.899449   -1.661329   -1.784482
     21          1           0       -3.236583   -1.551795   -0.618775
     22          1           0       -1.922423   -2.717117   -0.351648
     23          1           0       -1.174353    0.186514    1.896637
     24          1           0       -1.413916   -1.582340    1.930380
     25          1           0       -2.784252   -0.501029    1.600455
     26          1           0        1.211135    3.180940    0.528244
     27          1           0        1.254753    2.734534   -1.191873
     28          1           0        2.102073    1.734076    0.010659
 ---------------------------------------------------------------------

 SCF Done:  E(RB3LYP) =  -745.068990491     A.U. after    1 cycles

 Excitation energies and oscillator strengths:

 Excited State   1:      Singlet-A      5.9262 eV  209.21 nm  f=0.1152  <S**2>=0.000
      44 -> 46        -0.16495
      44 -> 47        -0.10251
      45 -> 46         0.66475
 This state for optimization and/or second-order correction.
 Total Energy, E(TD-HF/TD-KS) =  -744.851205314
 Copying the excited state density for this state as the 1-particle RhoCI density.

 Excited State   2:      Singlet-A      5.9300 eV  209.08 nm  f=0.0195  <S**2>=0.000
      44 -> 46         0.66491
      45 -> 46         0.16467
      45 -> 47         0.12966

 Excited State   3:      Singlet-A      6.2424 eV  198.62 nm  f=0.0416  <S**2>=0.000
      44 -> 46        -0.11944
      45 -> 47         0.68529

 Excited State   4:      Singlet-A      6.3473 eV  195.34 nm  f=0.0276  <S**2>=0.000
      44 -> 47         0.69014

 Excited State   5:      Singlet-A      6.6116 eV  187.52 nm  f=0.0081  <S**2>=0.000
      45 -> 48         0.69065

 Excited State   6:      Singlet-A      6.7250 eV  184.36 nm  f=0.0253  <S**2>=0.000
      44 -> 48         0.69257
      44 -> 49        -0.10117

 Excited State   7:      Singlet-A      6.8919 eV  179.90 nm  f=0.0168  <S**2>=0.000
      43 -> 46         0.68623

 Excited State   8:      Singlet-A      7.3572 eV  168.52 nm  f=0.0346  <S**2>=0.000
      45 -> 49         0.69612

 Excited State   9:      Singlet-A      7.3684 eV  168.27 nm  f=0.0537  <S**2>=0.000
      43 -> 47         0.64190
      44 -> 49         0.21085
      44 -> 51         0.15242

 Excited State  10:      Singlet-A      7.5695 eV  163.79 nm  f=0.0094  <S**2>=0.000
      43 -> 48         0.53031
      44 -> 50        -0.45260

 The electronic state is 1-A.
 Alpha  occ. eigenvalues --  -77.11597 -14.31961 -14.31960 -14.31815 -10.20180
 Alpha  occ. eigenvalues --  -10.20180 -10.19951 -10.19949 -10.19504 -10.19503
 Alpha  occ. eigenvalues --   -6.57395  -4.73756  -4.73658  -4.73172  -0.91924
 Alpha  occ. eigenvalues --   -0.88500  -0.87850  -0.70433  -0.70011  -0.69140
 Alpha  occ. eigenvalues --   -0.67992  -0.61508  -0.60759  -0.53472  -0.47789
 Alpha  occ. eigenvalues --   -0.47596  -0.45704  -0.44738  -0.44439  -0.43579
 Alpha  occ. eigenvalues --   -0.42387  -0.41955  -0.40301  -0.38835  -0.38225
 Alpha  occ. eigenvalues --   -0.38003  -0.36762  -0.36096  -0.35591  -0.35157
 Alpha  occ. eigenvalues --   -0.33955  -0.27392  -0.23423  -0.19933  -0.19307
 Alpha virt. eigenvalues --    0.05381   0.07226   0.08097   0.11531   0.11779
 Alpha virt. eigenvalues --    0.12876   0.13642   0.15123   0.15268   0.15988
 Alpha virt. eigenvalues --    0.16460   0.16830   0.17072   0.17846   0.18081

 Mulliken atomic charges:
              1
     1  C   -0.320302
     2  N   -0.355604
     3  P    0.425762
     4  N   -0.494076
     5  C   -0.296456
     6  C   -0.266567
     7  N   -0.475584
     8  C   -0.269602
     9  C   -0.300688
    10  C   -0.322619
    11  H    0.195653
    12  H    0.167059
    13  H    0.158762
    14  H    0.141334
    15  H    0.136847
    16  H    0.129340
    17  H    0.157483
    18  H    0.115669
    19  H    0.114458
    20  H    0.162390
    21  H    0.118383
    22  H    0.122540
    23  H    0.146594
    24  H    0.136344
    25  H    0.144187
    26  H    0.161624
    27  H    0.166188
    28  H    0.200882
 Sum of Mulliken atomic charges =  -0.00000

 Dipole moment (field-independent basis, Debye):
    X=             -0.3849    Y=              2.6600    Z=              1.8177  Tot=              3.2447
 Quadrupole moment (field-independent basis, Debye-Ang):
   XX=            -69.8758   YY=            -67.0133   ZZ=            -74.9975
   XY=              0.5309   XZ=             -0.1135   YZ=             -0.0070

 Summary of Natural Population Analysis:

                                       Natural Population
                Natural  -----------------------------------------------
    Atom  No    Charge         Core      Valence    Rydberg      Total
 -----------------------------------------------------------------------
      C    1   -0.50687      1.99945     4.49292    0.01450     6.50687
      N    2   -0.55217      1.99951     5.52602    0.02664     7.55217
      P    3    1.05801      9.99834     3.81914    0.12450    13.94199
      N    4   -0.82450      1.99949     5.80688    0.01814     7.82450
      C    5   -0.46877      1.99948     4.45477    0.01452     6.46877
      C    6   -0.46134      1.99949     4.44589    0.01596     6.46134
      N    7   -0.78176      1.99949     5.76398    0.01829     7.78176
      C    8   -0.46417      1.99948     4.44862    0.01607     6.46417
      C    9   -0.47221      1.99947     4.45811    0.01464     6.47221
      C   10   -0.50876      1.99946     4.49445    0.01486     6.50876
      H   11    0.25289      0.00000     0.74516    0.00194     0.74711
      H   12    0.23868      0.00000     0.75347    0.00785     0.76132
      H   13    0.23197      0.00000     0.76628    0.00175     0.76803
      H   14    0.21485      0.00000     0.78259    0.00256     0.78515
      H   15    0.21343      0.00000     0.78478    0.00179     0.78657
      H   16    0.19792      0.00000     0.79586    0.00622     0.80208
      H   17    0.23553      0.00000     0.76182    0.00265     0.76447
      H   18    0.19329      0.00000     0.79966    0.00705     0.80671
      H   19    0.19731      0.00000     0.79763    0.00506     0.80269
      H   20    0.23816      0.00000     0.75913    0.00271     0.76184
      H   21    0.20033      0.00000     0.79455    0.00512     0.79967
      H   22    0.19856      0.00000     0.79407    0.00736     0.80144
      H   23    0.21782      0.00000     0.77942    0.00276     0.78218
      H   24    0.20326      0.00000     0.79016    0.00658     0.79674
      H   25    0.21939      0.00000     0.77900    0.00161     0.78061
      H   26    0.23518      0.00000     0.76335    0.00147     0.76482
      H   27    0.23742      0.00000     0.75485    0.00774     0.76258
      H   28    0.25656      0.00000     0.74195    0.00150     0.74344
 =======================================================================
   * Total *    0.00000     27.99365    61.65452    0.35183    90.00000

 Normal termination of Gaussian 09 at Sat Oct  2 02:53:43 2021.
