 Gaussian 09, Revision A.02,

 -----------------------------------
 #p opt b3lyp/6-31G* scf=(xqc,tight)
 -----------------------------------

 ----------------
 C1CCCCNC1_conf_0
 ----------------
 Symbolic Z-matrix:
 Charge =  0 Multiplicity = 1

 SCF Done:  E(RB3LYP) =  -291.205084204     A.U. after   13 cycles
 SCF Done:  E(RB3LYP) =  -291.207609955     A.U. after   11 cycles
 SCF Done:  E(RB3LYP) =  -291.207921993     A.U. after   10 cycles
 SCF Done:  E(RB3LYP) =  -291.208267092     A.U. after   11 cycles
 SCF Done:  E(RB3LYP) =  -291.208422065     A.U. after   11 cycles
 SCF Done:  E(RB3LYP) =  -291.208463379     A.U. after    9 cycles
 SCF Done:  E(RB3LYP) =  -291.208477511     A.U. after   10 cycles
 SCF Done:  E(RB3LYP) =  -291.208478956     A.U. after    7 cycles
 SCF Done:  E(RB3LYP) =  -291.208479581     A.U. after    7 cycles
 Optimization completed.
    -- Stationary point found.
 Normal termination of Gaussian 09 at Mon Oct  4 10:34:06 2021.

 ----------------------------------------------------------------------
 #p freq b3lyp/6-31G* volume NMR pop=NPA density=current Geom=AllCheck
 Guess=Read
 ----------------------------------------------------------------------

 C1CCCCNC1_conf_0
 ----------------
 Redundant internal coordinates taken from checkpoint file:
 C6H13N_a667_conf_0.chk
 Charge =  0 Multiplicity = 1

 SCF Done:  E(RB3LYP) =  -291.208479581     A.U. after    1 cycles

  1  C    Isotropic =   156.0231   Anisotropy =    11.1790

  2  C    Isotropic =   156.6256   Anisotropy =    11.0466

  3  C    Isotropic =   164.1301   Anisotropy =     9.6960

  4  C    Isotropic =   158.9077   Anisotropy =    23.3434

  5  C    Isotropic =   142.8701   Anisotropy =    34.3717

  6  N    Isotropic =   214.9968   Anisotropy =    58.5575

  7  C    Isotropic =   143.3461   Anisotropy =    34.9211

  8  H    Isotropic =    30.4409   Anisotropy =     7.4931

  9  H    Isotropic =    30.6525   Anisotropy =     8.4988

 10  H    Isotropic =    30.8764   Anisotropy =     7.4204

 11  H    Isotropic =    30.3172   Anisotropy =     8.7145

 12  H    Isotropic =    30.6956   Anisotropy =     9.8131

 13  H    Isotropic =    30.1448   Anisotropy =     6.6277

 14  H    Isotropic =    30.6334   Anisotropy =     6.0987

 15  H    Isotropic =    30.3906   Anisotropy =     8.7155

 16  H    Isotropic =    29.1592   Anisotropy =     7.9484

 17  H    Isotropic =    29.3646   Anisotropy =     8.5697

 18  H    Isotropic =    31.7215   Anisotropy =    15.1776

 19  H    Isotropic =    29.4676   Anisotropy =     6.5265

 20  H    Isotropic =    29.6167   Anisotropy =     8.2365

  Exact polarizability:  73.967   1.264  70.966  -0.512   0.027  60.186
 Approx polarizability:  93.879   1.667  91.606  -1.789   1.218  91.602

                     1                      2                      3
                     A                      A                      A
 Frequencies --   128.4954               184.3557               281.6654
 Red. masses --     1.9149                 2.0846                 1.9969
 Frc consts  --     0.0186                 0.0417                 0.0933
 IR Inten    --     1.2704                 1.4635                 1.1587

                     4                      5                      6
                     A                      A                      A
 Frequencies --   315.4200               340.1542               411.3493
 Red. masses --     2.2393                 2.7390                 2.3870
 Frc consts  --     0.1313                 0.1867                 0.2380
 IR Inten    --     0.6910                 3.0894                 1.0421

                     7                      8                      9
                     A                      A                      A
 Frequencies --   500.4451               533.8900               712.8558
 Red. masses --     1.4754                 1.9330                 1.3958
 Frc consts  --     0.2177                 0.3246                 0.4179
 IR Inten    --     5.5088                28.2751                48.7227

                    10                     11                     12
                     A                      A                      A
 Frequencies --   755.3001               835.6323               836.5589
 Red. masses --     2.5723                 1.6091                 1.7603
 Frc consts  --     0.8646                 0.6620                 0.7258
 IR Inten    --     1.5134                 4.9808                 2.6364

                    13                     14                     15
                     A                      A                      A
 Frequencies --   862.8680               905.8458               933.9503
 Red. masses --     2.6180                 1.7800                 1.8413
 Frc consts  --     1.1485                 0.8606                 0.9463
 IR Inten    --     0.6194                 2.5104                12.1997

                    16                     17                     18
                     A                      A                      A
 Frequencies --   988.8999              1029.9877              1046.1592
 Red. masses --     2.2057                 1.9486                 1.6693
 Frc consts  --     1.2709                 1.2180                 1.0764
 IR Inten    --     5.7185                 0.3110                 4.3495

                    19                     20                     21
                     A                      A                      A
 Frequencies --  1049.3802              1130.3045              1136.3308
 Red. masses --     1.6408                 1.9479                 1.8188
 Frc consts  --     1.0646                 1.4663                 1.3837
 IR Inten    --     0.5950                 0.8258                 2.0315

                    22                     23                     24
                     A                      A                      A
 Frequencies --  1195.5450              1216.5694              1255.2774
 Red. masses --     2.9855                 1.3111                 1.3914
 Frc consts  --     2.5142                 1.1433                 1.2917
 IR Inten    --    27.3035                 2.7461                 0.0999

                    25                     26                     27
                     A                      A                      A
 Frequencies --  1270.3351              1285.9992              1321.2502
 Red. masses --     1.2336                 1.2072                 1.1397
 Frc consts  --     1.1729                 1.1763                 1.1722
 IR Inten    --     4.8936                 8.4607                 1.2047

                    28                     29                     30
                     A                      A                      A
 Frequencies --  1339.9498              1376.9236              1391.1450
 Red. masses --     1.1477                 1.2588                 1.2758
 Frc consts  --     1.2141                 1.4061                 1.4547
 IR Inten    --     1.5699                 9.1875                19.7446

                    31                     32                     33
                     A                      A                      A
 Frequencies --  1404.3951              1411.9685              1416.5215
 Red. masses --     1.4163                 1.4063                 1.4268
 Frc consts  --     1.6458                 1.6519                 1.6868
 IR Inten    --     2.7640                 3.7949                 5.7313

                    34                     35                     36
                     A                      A                      A
 Frequencies --  1441.3672              1501.0757              1505.5566
 Red. masses --     1.4236                 1.1152                 1.1424
 Frc consts  --     1.7425                 1.4806                 1.5257
 IR Inten    --     7.1751                 2.2091                 1.3019

                    37                     38                     39
                     A                      A                      A
 Frequencies --  1511.9105              1519.9502              1528.1570
 Red. masses --     1.0868                 1.1009                 1.1581
 Frc consts  --     1.4637                 1.4985                 1.5934
 IR Inten    --     2.9261                 5.0323                 4.1229

                    40                     41                     42
                     A                      A                      A
 Frequencies --  1531.8687              1547.8214              2926.1626
 Red. masses --     1.1120                 1.0933                 1.0752
 Frc consts  --     1.5374                 1.5432                 5.4244
 IR Inten    --     3.1436                 1.5905               107.3489

                    43                     44                     45
                     A                      A                      A
 Frequencies --  2955.5800              3011.0595              3027.6882
 Red. masses --     1.0722                 1.0659                 1.0646
 Frc consts  --     5.5181                 5.6938                 5.7501
 IR Inten    --    62.2324                21.2764                35.2165

                    46                     47                     48
                     A                      A                      A
 Frequencies --  3032.5598              3037.1605              3043.0894
 Red. masses --     1.0639                 1.0727                 1.0811
 Frc consts  --     5.7646                 5.8300                 5.8986
 IR Inten    --    22.5366                22.6656                27.3577

                    49                     50                     51
                     A                      A                      A
 Frequencies --  3056.1464              3067.0824              3073.4728
 Red. masses --     1.0931                 1.0906                 1.0990
 Frc consts  --     6.0155                 6.0446                 6.1168
 IR Inten    --    67.6629                80.8674                35.5784

                    52                     53                     54
                     A                      A                      A
 Frequencies --  3075.9814              3084.0722              3519.7963
 Red. masses --     1.1006                 1.1005                 1.0750
 Frc consts  --     6.1353                 6.1672                 7.8471
 IR Inten    --    21.2412                97.6155                 0.6585

 - Thermochemistry -
 -------------------
 Temperature   298.150 Kelvin.  Pressure   1.00000 Atm.
 Atom     1 has atomic number  6 and mass  12.00000

 Molecular mass:    99.10480 amu.
 Principal axes and moments of inertia in atomic units:
                           1         2         3
     Eigenvalues --   557.21596 617.597021027.57713
           X            0.99889   0.04683   0.00479
           Y           -0.04680   0.99888  -0.00655
           Z           -0.00509   0.00632   0.99997
 This molecule is an asymmetric top.
 Rotational symmetry number  1.
 Warning -- assumption of classical behavior for rotation
           may cause significant error
 Rotational temperatures (Kelvin)      0.15544     0.14024     0.08429
 Rotational constants (GHZ):           3.23885     2.92220     1.75631
 Zero-point vibrational energy     495273.6 (Joules/Mol)
                                  118.37324 (Kcal/Mol)
 Warning -- explicit consideration of   8 degrees of freedom as
           vibrations may cause significant error
 Vibrational temperatures:    184.88   265.25   405.25   453.82   489.41
          (Kelvin)            591.84   720.03   768.15  1025.64  1086.71
                             1202.29  1203.62  1241.47  1303.31  1343.74
                             1422.80  1481.92  1505.19  1509.82  1626.25
                             1634.92  1720.12  1750.37  1806.06  1827.73
                             1850.26  1900.98  1927.89  1981.08  2001.54
                             2020.61  2031.51  2038.06  2073.80  2159.71
                             2166.16  2175.30  2186.87  2198.67  2204.01
                             2226.97  4210.09  4252.42  4332.24  4356.16
                             4363.17  4369.79  4378.32  4397.11  4412.84
                             4422.04  4425.65  4437.29  5064.20

 Zero-point correction=                           0.188640 (Hartree/Particle)
 Thermal correction to Energy=                    0.195520
 Thermal correction to Enthalpy=                  0.196464
 Thermal correction to Gibbs Free Energy=         0.158124
 Sum of electronic and zero-point Energies=           -291.019840
 Sum of electronic and thermal Energies=              -291.012959
 Sum of electronic and thermal Enthalpies=            -291.012015
 Sum of electronic and thermal Free Energies=         -291.050356

                     E (Thermal)             CV                S
                      KCal/Mol        Cal/Mol-Kelvin    Cal/Mol-Kelvin
 Total                  122.691             26.949             80.694
 Electronic               0.000              0.000              0.000
 Translational            0.889              2.981             39.691
 Rotational               0.889              2.981             27.361
 Vibrational            120.913             20.988             13.642
 Vibration     1          0.611              1.925              2.968
 Vibration     2          0.631              1.861              2.284
 Vibration     3          0.681              1.708              1.524
 Vibration     4          0.703              1.644              1.334
 Vibration     5          0.720              1.595              1.211
 Vibration     6          0.775              1.446              0.922
 Vibration     7          0.856              1.249              0.657
 Vibration     8          0.889              1.175              0.579

 Optimization completed.
    -- Stationary point found.
 Normal termination of Gaussian 09 at Mon Oct  4 11:00:25 2021.
 Gaussian 09:  AM64L-G09RevA.02 11-Jun-2009

 ----------------------------------------------------------------------
 #p TD(NStates=10, Root=1) b3lyp/6-31G* volume pop=NPA density=current
 Geom=AllCheck Guess=Read
 ----------------------------------------------------------------------

 C1CCCCNC1_conf_0
 ----------------
 Redundant internal coordinates taken from checkpoint file:
 C6H13N_a667_conf_0.chk
 Charge =  0 Multiplicity = 1

                         Standard orientation:
 ---------------------------------------------------------------------
 Center     Atomic      Atomic             Coordinates (Angstroms)
 Number     Number       Type             X           Y           Z
 ---------------------------------------------------------------------
      1          6           0       -1.535623   -0.765940   -0.097300
      2          6           0       -1.536725    0.755031    0.116965
      3          6           0       -0.301898    1.510625   -0.408748
      4          6           0        0.976017    1.217067    0.398730
      5          6           0        1.743633   -0.058672   -0.000196
      6          7           0        0.883067   -1.140413   -0.479682
      7          6           0       -0.264894   -1.497463    0.360704
      8          1           0       -1.662710   -0.983839   -1.165579
      9          1           0       -2.403630   -1.195797    0.423305
     10          1           0       -1.634075    0.968745    1.192468
     11          1           0       -2.438854    1.168227   -0.354470
     12          1           0       -0.512662    2.586404   -0.344263
     13          1           0       -0.141006    1.284798   -1.470585
     14          1           0        0.705138    1.167204    1.462199
     15          1           0        1.675390    2.058720    0.313245
     16          1           0        2.371844   -0.357110    0.861939
     17          1           0        2.434371    0.177072   -0.820844
     18          1           0        1.456984   -1.960720   -0.651447
     19          1           0       -0.080359   -1.318845    1.436326
     20          1           0       -0.434972   -2.575857    0.254547
 ---------------------------------------------------------------------

 SCF Done:  E(RB3LYP) =  -291.208479581     A.U. after    1 cycles

 Excitation energies and oscillator strengths:

 Excited State   1:      Singlet-A      6.5713 eV  188.68 nm  f=0.0070  <S**2>=0.000
      28 -> 29         0.69042
      28 -> 30        -0.12118
 This state for optimization and/or second-order correction.
 Total Energy, E(TD-HF/TD-KS) =  -290.966989709
 Copying the excited state density for this state as the 1-particle RhoCI density.

 Excited State   2:      Singlet-A      7.7047 eV  160.92 nm  f=0.0201  <S**2>=0.000
      28 -> 29         0.12429
      28 -> 30         0.68383

 Excited State   3:      Singlet-A      7.9043 eV  156.86 nm  f=0.0342  <S**2>=0.000
      28 -> 31         0.69686

 Excited State   4:      Singlet-A      8.2037 eV  151.13 nm  f=0.0033  <S**2>=0.000
      28 -> 30        -0.10292
      28 -> 32         0.68812

 Excited State   5:      Singlet-A      8.6595 eV  143.18 nm  f=0.0358  <S**2>=0.000
      28 -> 33         0.69243

 Excited State   6:      Singlet-A      8.9005 eV  139.30 nm  f=0.0020  <S**2>=0.000
      28 -> 34         0.69764

 Excited State   7:      Singlet-A      9.0152 eV  137.53 nm  f=0.0249  <S**2>=0.000
      28 -> 35         0.63193
      28 -> 36         0.26838
      28 -> 37         0.12250

 Excited State   8:      Singlet-A      9.3128 eV  133.13 nm  f=0.0277  <S**2>=0.000
      28 -> 35        -0.28557
      28 -> 36         0.61864
      28 -> 37         0.11573

 Excited State   9:      Singlet-A      9.4343 eV  131.42 nm  f=0.0008  <S**2>=0.000
      27 -> 29         0.68292
      28 -> 37        -0.13915

 Excited State  10:      Singlet-A      9.4943 eV  130.59 nm  f=0.0115  <S**2>=0.000
      27 -> 29         0.14299
      28 -> 36        -0.15165
      28 -> 37         0.66162

 The electronic state is 1-A.
 Alpha  occ. eigenvalues --  -14.30657 -10.19930 -10.19908 -10.17394 -10.17111
 Alpha  occ. eigenvalues --  -10.17031 -10.16808  -0.89187  -0.78180  -0.75657
 Alpha  occ. eigenvalues --   -0.66524  -0.64807  -0.55382  -0.55015  -0.49800
 Alpha  occ. eigenvalues --   -0.45890  -0.43909  -0.42269  -0.41307  -0.40004
 Alpha  occ. eigenvalues --   -0.38306  -0.35168  -0.33294  -0.32272  -0.31305
 Alpha  occ. eigenvalues --   -0.30915  -0.30323  -0.20736
 Alpha virt. eigenvalues --    0.07702   0.11363   0.11772   0.13055   0.14767
 Alpha virt. eigenvalues --    0.15618   0.16680   0.17290   0.17818   0.18158
 Alpha virt. eigenvalues --    0.19467   0.20356   0.21205   0.22429   0.24467

 Mulliken atomic charges:
              1
     1  C   -0.249268
     2  C   -0.247111
     3  C   -0.229956
     4  C   -0.251118
     5  C   -0.114641
     6  N   -0.187268
     7  C   -0.111527
     8  H    0.141490
     9  H    0.127454
    10  H    0.122231
    11  H    0.115272
    12  H    0.109336
    13  H    0.122387
    14  H    0.117074
    15  H    0.088791
    16  H    0.157870
    17  H    0.092354
    18  H    0.009319
    19  H    0.163339
    20  H    0.023973
 Sum of Mulliken atomic charges =  -0.00000

 Dipole moment (field-independent basis, Debye):
    X=             -0.2421    Y=              0.6144    Z=              0.7056  Tot=              0.9664
 Quadrupole moment (field-independent basis, Debye-Ang):
   XX=            -47.8832   YY=            -54.0832   ZZ=            -46.3813
   XY=              1.5125   XZ=              1.2153   YZ=             -1.1429

 Summary of Natural Population Analysis:

                                       Natural Population
                Natural  -----------------------------------------------
    Atom  No    Charge         Core      Valence    Rydberg      Total
 -----------------------------------------------------------------------
      C    1   -0.45819      1.99929     4.44675    0.01215     6.45819
      C    2   -0.45887      1.99932     4.44668    0.01286     6.45887
      C    3   -0.46440      1.99932     4.45284    0.01224     6.46440
      C    4   -0.48023      1.99933     4.46724    0.01365     6.48023
      C    5   -0.31488      1.99930     4.29880    0.01678     6.31488
      N    6   -0.20424      1.99934     5.19002    0.01488     7.20424
      C    7   -0.33022      1.99928     4.31090    0.02003     6.33022
      H    8    0.23286      0.00000     0.76290    0.00424     0.76714
      H    9    0.22695      0.00000     0.76496    0.00809     0.77305
      H   10    0.22065      0.00000     0.77486    0.00450     0.77935
      H   11    0.22227      0.00000     0.77043    0.00730     0.77773
      H   12    0.21890      0.00000     0.77049    0.01061     0.78110
      H   13    0.22359      0.00000     0.77217    0.00424     0.77641
      H   14    0.21729      0.00000     0.77328    0.00943     0.78271
      H   15    0.19437      0.00000     0.78623    0.01940     0.80563
      H   16    0.25052      0.00000     0.73082    0.01865     0.74948
      H   17    0.19042      0.00000     0.77815    0.03143     0.80958
      H   18    0.12923      0.00000     0.76035    0.11042     0.87077
      H   19    0.25221      0.00000     0.73687    0.01092     0.74779
      H   20    0.13178      0.00000     0.81668    0.05154     0.86822
 =======================================================================
   * Total *   -0.00000     13.99519    41.61143    0.39338    56.00000

 Normal termination of Gaussian 09 at Mon Oct  4 12:52:37 2021.
