 Gaussian 09, Revision A.02,

 -----------------------------------
 #p opt b3lyp/6-31G* scf=(xqc,tight)
 -----------------------------------

 ------------------------
 Cl[Zn]c1cccc(c1)F_conf_0
 ------------------------
 Symbolic Z-matrix:
 Charge =  0 Multiplicity = 1

 SCF Done:  E(RB3LYP) =  -2570.24656415     A.U. after   13 cycles
 SCF Done:  E(RB3LYP) =  -2570.25315242     A.U. after   12 cycles
 SCF Done:  E(RB3LYP) =  -2570.25350270     A.U. after   10 cycles
 SCF Done:  E(RB3LYP) =  -2570.25351464     A.U. after   14 cycles
 SCF Done:  E(RB3LYP) =  -2570.25351556     A.U. after   14 cycles
 SCF Done:  E(RB3LYP) =  -2570.25351577     A.U. after    7 cycles
 SCF Done:  E(RB3LYP) =  -2570.25351581     A.U. after    6 cycles
 SCF Done:  E(RB3LYP) =  -2570.25351583     A.U. after    6 cycles
 SCF Done:  E(RB3LYP) =  -2570.25351584     A.U. after   14 cycles
 Optimization completed.
    -- Stationary point found.
 Normal termination of Gaussian 09 at Tue Oct  5 16:49:51 2021.

 ----------------------------------------------------------------------
 #p freq b3lyp/6-31G* volume NMR pop=NPA density=current Geom=AllCheck
 Guess=Read
 ----------------------------------------------------------------------

 Cl[Zn]c1cccc(c1)F_conf_0
 ------------------------
 Redundant internal coordinates taken from checkpoint file:
 C6H4ClFZn_6ebd_conf_0.chk
 Charge =  0 Multiplicity = 1

 SCF Done:  E(RB3LYP) =  -2570.25351584     A.U. after    1 cycles

  1  Cl   Isotropic =   988.8897   Anisotropy =   233.9956

  2  Zn   Isotropic =  1868.9644   Anisotropy =   938.1733

  3  C    Isotropic =    57.2454   Anisotropy =   176.6558

  4  C    Isotropic =    63.3915   Anisotropy =   159.3997

  5  C    Isotropic =    66.7149   Anisotropy =   163.1165

  6  C    Isotropic =    77.4203   Anisotropy =   142.2311

  7  C    Isotropic =    33.9201   Anisotropy =   100.8443

  8  C    Isotropic =    70.6274   Anisotropy =   135.7483

  9  F    Isotropic =   295.3696   Anisotropy =    94.2133

 10  H    Isotropic =    25.0787   Anisotropy =     8.4644

 11  H    Isotropic =    25.0490   Anisotropy =     4.8733

 12  H    Isotropic =    25.3857   Anisotropy =     4.8318

 13  H    Isotropic =    25.2945   Anisotropy =     8.6884

  Exact polarizability: 142.053   6.269  88.228   0.001   0.000  43.160
 Approx polarizability: 200.618   3.822 150.868   0.001   0.001  63.427

                     1                      2                      3
                     A                      A                      A
 Frequencies --    42.9768                51.5237               152.2794
 Red. masses --    14.6146                13.6502                 7.0805
 Frc consts  --     0.0159                 0.0214                 0.0967
 IR Inten    --     3.1990                 2.7427                 9.8829

                     4                      5                      6
                     A                      A                      A
 Frequencies --   177.4931               239.3150               250.0950
 Red. masses --    13.6759                 5.0538                10.7522
 Frc consts  --     0.2538                 0.1705                 0.3962
 IR Inten    --     6.4095                 0.5651                 0.2661

                     7                      8                      9
                     A                      A                      A
 Frequencies --   417.4400               435.2417               435.3890
 Red. masses --     6.3058                28.3442                 3.4879
 Frc consts  --     0.6474                 3.1636                 0.3896
 IR Inten    --     7.8516                72.4112                 3.8812

                    10                     11                     12
                     A                      A                      A
 Frequencies --   527.3896               527.8923               680.8672
 Red. masses --     8.8918                 4.4894                 7.5266
 Frc consts  --     1.4571                 0.7371                 2.0558
 IR Inten    --     3.8819                 0.1838                 4.4848

                    13                     14                     15
                     A                      A                      A
 Frequencies --   688.5259               788.1286               873.6377
 Red. masses --     3.5672                 1.3190                 1.2618
 Frc consts  --     0.9964                 0.4827                 0.5674
 IR Inten    --     3.6123                46.3059                 3.9997

                    16                     17                     18
                     A                      A                      A
 Frequencies --   888.4735               907.7376               976.0573
 Red. masses --     6.3884                 1.3966                 1.2778
 Frc consts  --     2.9712                 0.6780                 0.7173
 IR Inten    --    18.0964                 4.2833                 0.1564

                    19                     20                     21
                     A                      A                      A
 Frequencies --  1013.9862              1090.0799              1133.7092
 Red. masses --     6.2906                 1.9700                 1.5733
 Frc consts  --     3.8107                 1.3792                 1.1914
 IR Inten    --     4.7313                 0.2375                 9.1394

                    22                     23                     24
                     A                      A                      A
 Frequencies --  1199.2318              1270.8188              1307.4175
 Red. masses --     1.1629                 2.9878                 2.1723
 Frc consts  --     0.9854                 2.8429                 2.1877
 IR Inten    --     3.3123                79.7985                23.3076

                    25                     26                     27
                     A                      A                      A
 Frequencies --  1351.6491              1447.3469              1523.4510
 Red. masses --     2.7344                 3.0693                 2.3335
 Frc consts  --     2.9434                 3.7883                 3.1909
 IR Inten    --     0.9939                37.8849                30.7953

                    28                     29                     30
                     A                      A                      A
 Frequencies --  1635.9905              1646.4562              3174.6035
 Red. masses --     5.5271                 6.2656                 1.0881
 Frc consts  --     8.7158                10.0073                 6.4608
 IR Inten    --    50.5334                21.8519                 5.4264

                    31                     32                     33
                     A                      A                      A
 Frequencies --  3195.4879              3200.0786              3224.7638
 Red. masses --     1.0909                 1.0919                 1.0943
 Frc consts  --     6.5630                 6.5879                 6.7047
 IR Inten    --    10.1737                15.6192                 6.3528

 - Thermochemistry -
 -------------------
 Temperature   298.150 Kelvin.  Pressure   1.00000 Atm.
 Atom     1 has atomic number 17 and mass  34.96885

 Molecular mass:   193.92770 amu.
 Principal axes and moments of inertia in atomic units:
                           1         2         3
     Eigenvalues --   566.854844090.884594657.73943
           X            0.99988   0.01543   0.00000
           Y           -0.01543   0.99988   0.00000
           Z           -0.00000  -0.00000   1.00000
 This molecule is an asymmetric top.
 Rotational symmetry number  1.
 Warning -- assumption of classical behavior for rotation
           may cause significant error
 Rotational temperatures (Kelvin)      0.15280     0.02117     0.01860
 Rotational constants (GHZ):           3.18378     0.44116     0.38747
 Zero-point vibrational energy     218172.1 (Joules/Mol)
                                   52.14439 (Kcal/Mol)
 Warning -- explicit consideration of  11 degrees of freedom as
           vibrations may cause significant error
 Vibrational temperatures:     61.83    74.13   219.10   255.37   344.32
          (Kelvin)            359.83   600.60   626.22   626.43   758.80
                              759.52   979.61   990.63  1133.94  1256.97
                             1278.31  1306.03  1404.33  1458.90  1568.38
                             1631.15  1725.42  1828.42  1881.08  1944.72
                             2082.41  2191.90  2353.82  2368.88  4567.54
                             4597.59  4604.19  4639.71

 Zero-point correction=                           0.083097 (Hartree/Particle)
 Thermal correction to Energy=                    0.091767
 Thermal correction to Enthalpy=                  0.092711
 Thermal correction to Gibbs Free Energy=         0.046907
 Sum of electronic and zero-point Energies=          -2570.170418
 Sum of electronic and thermal Energies=             -2570.161749
 Sum of electronic and thermal Enthalpies=           -2570.160805
 Sum of electronic and thermal Free Energies=        -2570.206609

                     E (Thermal)             CV                S
                      KCal/Mol        Cal/Mol-Kelvin    Cal/Mol-Kelvin
 Total                   57.585             29.954             96.403
 Electronic               0.000              0.000              0.000
 Translational            0.889              2.981             41.692
 Rotational               0.889              2.981             30.758
 Vibrational             55.807             23.992             23.953
 Vibration     1          0.595              1.980              5.117
 Vibration     2          0.596              1.977              4.758
 Vibration     3          0.619              1.900              2.644
 Vibration     4          0.628              1.870              2.355
 Vibration     5          0.657              1.780              1.808
 Vibration     6          0.663              1.763              1.730
 Vibration     7          0.780              1.432              0.901
 Vibration     8          0.796              1.393              0.842
 Vibration     9          0.796              1.393              0.841
 Vibration    10          0.882              1.189              0.593
 Vibration    11          0.883              1.188              0.592

 Optimization completed.
    -- Stationary point found.
 Normal termination of Gaussian 09 at Tue Oct  5 16:55:07 2021.
 Gaussian 09:  AM64L-G09RevA.02 11-Jun-2009

 ----------------------------------------------------------------------
 #p TD(NStates=10, Root=1) b3lyp/6-31G* volume pop=NPA density=current
 Geom=AllCheck Guess=Read
 ----------------------------------------------------------------------

 Cl[Zn]c1cccc(c1)F_conf_0
 ------------------------
 Redundant internal coordinates taken from checkpoint file:
 C6H4ClFZn_6ebd_conf_0.chk
 Charge =  0 Multiplicity = 1

                         Standard orientation:
 ---------------------------------------------------------------------
 Center     Atomic      Atomic             Coordinates (Angstroms)
 Number     Number       Type             X           Y           Z
 ---------------------------------------------------------------------
      1         17           0       -3.564043   -0.252039    0.000027
      2         30           0       -1.472193    0.002467   -0.000011
      3          6           0        0.405265    0.247002   -0.000044
      4          6           0        0.968608    1.535852   -0.000016
      5          6           0        2.352826    1.720824    0.000018
      6          6           0        3.211994    0.621766    0.000024
      7          6           0        2.651977   -0.649961   -0.000009
      8          6           0        1.277066   -0.854744   -0.000033
      9          9           0        3.471299   -1.723116    0.000023
     10          1           0        0.329110    2.415538   -0.000023
     11          1           0        2.767738    2.725187    0.000043
     12          1           0        4.291357    0.734024    0.000058
     13          1           0        0.918214   -1.880469   -0.000051
 ---------------------------------------------------------------------

 SCF Done:  E(RB3LYP) =  -2570.25351584     A.U. after    1 cycles

 Excitation energies and oscillator strengths:

 Excited State   1:      Singlet-A      5.0551 eV  245.27 nm  f=0.0344  <S**2>=0.000
      47 -> 49         0.13526
      47 -> 52         0.26511
      48 -> 49         0.62936
      48 -> 52        -0.10407
 This state for optimization and/or second-order correction.
 Total Energy, E(TD-HF/TD-KS) =  -2570.06774530
 Copying the excited state density for this state as the 1-particle RhoCI density.

 Excited State   2:      Singlet-A      5.3169 eV  233.19 nm  f=0.0019  <S**2>=0.000
      48 -> 50         0.70315

 Excited State   3:      Singlet-A      5.6405 eV  219.81 nm  f=0.0021  <S**2>=0.000
      47 -> 50        -0.25672
      48 -> 51         0.65485

 Excited State   4:      Singlet-A      5.6754 eV  218.46 nm  f=0.0030  <S**2>=0.000
      47 -> 50         0.64587
      48 -> 51         0.25932

 Excited State   5:      Singlet-A      5.6955 eV  217.69 nm  f=0.1565  <S**2>=0.000
      47 -> 49         0.60608
      48 -> 49        -0.19629
      48 -> 52        -0.28232

 Excited State   6:      Singlet-A      6.0112 eV  206.25 nm  f=0.0000  <S**2>=0.000
      47 -> 51         0.70124

 Excited State   7:      Singlet-A      6.0723 eV  204.18 nm  f=0.0119  <S**2>=0.000
      46 -> 49         0.69063

 Excited State   8:      Singlet-A      6.2950 eV  196.96 nm  f=0.0807  <S**2>=0.000
      46 -> 51        -0.15256
      47 -> 49         0.25533
      47 -> 52        -0.26221
      47 -> 53         0.20173
      48 -> 49         0.13074
      48 -> 52         0.34850
      48 -> 53         0.39434

 Excited State   9:      Singlet-A      6.4438 eV  192.41 nm  f=0.0000  <S**2>=0.000
      45 -> 49         0.69737
      45 -> 53         0.10012

 Excited State  10:      Singlet-A      6.5022 eV  190.68 nm  f=0.0017  <S**2>=0.000
      44 -> 49         0.45345
      46 -> 50        -0.31429
      47 -> 52         0.20825
      47 -> 53         0.17935
      48 -> 52         0.24424
      48 -> 53        -0.21656

 The electronic state is 1-A.
 Alpha  occ. eigenvalues -- -347.30015-101.51699 -42.27026 -37.25464 -37.25385
 Alpha  occ. eigenvalues --  -37.25303 -24.70965 -10.27940 -10.20876 -10.20793
 Alpha  occ. eigenvalues --  -10.20690 -10.20642 -10.20570  -9.43494  -7.19521
 Alpha  occ. eigenvalues --   -7.19077  -7.19068  -4.84542  -3.23671  -3.23601
 Alpha  occ. eigenvalues --   -3.23423  -1.22117  -0.86655  -0.79285  -0.76177
 Alpha  occ. eigenvalues --   -0.75298  -0.62669  -0.61567  -0.54578  -0.50968
 Alpha  occ. eigenvalues --   -0.50736  -0.49794  -0.49773  -0.49054  -0.49049
 Alpha  occ. eigenvalues --   -0.48266  -0.46326  -0.44648  -0.41475  -0.39350
 Alpha  occ. eigenvalues --   -0.37191  -0.36660  -0.36451  -0.30976  -0.30920
 Alpha  occ. eigenvalues --   -0.30174  -0.26874  -0.25303
 Alpha virt. eigenvalues --   -0.04182  -0.02729  -0.01696  -0.00934   0.01898
 Alpha virt. eigenvalues --    0.08074   0.10231   0.12860   0.13472   0.13741
 Alpha virt. eigenvalues --    0.15942   0.17265   0.18244   0.19997   0.20302

 Mulliken atomic charges:
              1
     1  Cl  -0.349512
     2  Zn   0.362894
     3  C   -0.156534
     4  C   -0.128185
     5  C   -0.116342
     6  C   -0.208816
     7  C    0.401633
     8  C   -0.206959
     9  F   -0.248917
    10  H    0.165144
    11  H    0.159575
    12  H    0.159912
    13  H    0.166108
 Sum of Mulliken atomic charges =  -0.00000

 Dipole moment (field-independent basis, Debye):
    X=              5.4310    Y=              1.5688    Z=             -0.0003  Tot=              5.6531
 Quadrupole moment (field-independent basis, Debye-Ang):
   XX=            -77.9877   YY=            -59.4333   ZZ=            -69.1627
   XY=              2.1642   XZ=              0.0006   YZ=              0.0001

 Summary of Natural Population Analysis:

                                       Natural Population
                Natural  -----------------------------------------------
    Atom  No    Charge         Core      Valence    Rydberg      Total
 -----------------------------------------------------------------------
     Cl    1   -0.55113      9.99977     7.54075    0.01061    17.55113
     Zn    2    0.85714     17.99727    11.12890    0.01669    29.14286
      C    3   -0.56744      1.99904     4.52678    0.04161     6.56744
      C    4   -0.11889      1.99907     4.10264    0.01717     6.11889
      C    5   -0.20513      1.99914     4.18912    0.01688     6.20513
      C    6   -0.34946      1.99903     4.33192    0.01851     6.34946
      C    7    0.49005      1.99845     3.48376    0.02774     5.50995
      C    8   -0.26066      1.99898     4.24294    0.01874     6.26066
      F    9   -0.28151      1.99994     7.27585    0.00571     9.28151
      H   10    0.23898      0.00000     0.76022    0.00080     0.76102
      H   11    0.24500      0.00000     0.75412    0.00089     0.75500
      H   12    0.25407      0.00000     0.74477    0.00116     0.74593
      H   13    0.24897      0.00000     0.74984    0.00119     0.75103
 =======================================================================
   * Total *    0.00000     41.99069    53.83162    0.17769    96.00000

 Normal termination of Gaussian 09 at Tue Oct  5 17:02:38 2021.
