 Gaussian 09, Revision A.02,

 -----------------------------------
 #p opt b3lyp/6-31G* scf=(xqc,tight)
 -----------------------------------

 ---------------------
 Br[Mg]c1ccccc1_conf_0
 ---------------------
 Symbolic Z-matrix:
 Charge =  0 Multiplicity = 1

 SCF Done:  E(RB3LYP) =  -3003.50245555     A.U. after   13 cycles
 SCF Done:  E(RB3LYP) =  -3003.51241941     A.U. after   11 cycles
 SCF Done:  E(RB3LYP) =  -3003.51587600     A.U. after   14 cycles
 SCF Done:  E(RB3LYP) =  -3003.50923373     A.U. after   15 cycles
 SCF Done:  E(RB3LYP) =  -3003.51599292     A.U. after   14 cycles
 SCF Done:  E(RB3LYP) =  -3003.51602367     A.U. after    9 cycles
 SCF Done:  E(RB3LYP) =  -3003.51602462     A.U. after   13 cycles
 SCF Done:  E(RB3LYP) =  -3003.51602516     A.U. after   13 cycles
 SCF Done:  E(RB3LYP) =  -3003.51602571     A.U. after   13 cycles
 SCF Done:  E(RB3LYP) =  -3003.51602580     A.U. after   13 cycles
 SCF Done:  E(RB3LYP) =  -3003.51602589     A.U. after    7 cycles
 Optimization completed.
    -- Stationary point found.
 Normal termination of Gaussian 09 at Sun Oct  3 09:09:32 2021.

 ----------------------------------------------------------------------
 #p freq b3lyp/6-31G* volume NMR pop=NPA density=current Geom=AllCheck
 Guess=Read
 ----------------------------------------------------------------------

 Br[Mg]c1ccccc1_conf_0
 ---------------------
 Redundant internal coordinates taken from checkpoint file:
 C6H5BrMg_1ea5_conf_0.chk
 Charge =  0 Multiplicity = 1

 SCF Done:  E(RB3LYP) =  -3003.51602589     A.U. after    1 cycles

  1  Br   Isotropic =  2947.9540   Anisotropy =   251.7825

  2  Mg   Isotropic =   518.0826   Anisotropy =   278.0812

  3  C    Isotropic =    51.3491   Anisotropy =   192.9282

  4  C    Isotropic =    55.4543   Anisotropy =   162.5753

  5  C    Isotropic =    68.6304   Anisotropy =   163.9004

  6  C    Isotropic =    66.9394   Anisotropy =   168.6003

  7  C    Isotropic =    68.6296   Anisotropy =   163.9041

  8  C    Isotropic =    55.4596   Anisotropy =   162.5926

  9  H    Isotropic =    24.6911   Anisotropy =     7.8643

 10  H    Isotropic =    25.1545   Anisotropy =     5.2497

 11  H    Isotropic =    25.0058   Anisotropy =     4.8450

 12  H    Isotropic =    25.1542   Anisotropy =     5.2494

 13  H    Isotropic =    24.6912   Anisotropy =     7.8617

  Exact polarizability: 152.803   0.003  95.718   0.012   0.000  52.227
 Approx polarizability: 211.875   0.001 160.884   0.020  -0.000  76.983

                     1                      2                      3
                     A                      A                      A
 Frequencies --    48.5615                56.8069               184.5313
 Red. masses --     6.6286                 7.3794                 8.0349
 Frc consts  --     0.0092                 0.0140                 0.1612
 IR Inten    --     3.4102                 2.0952                35.5231

                     4                      5                      6
                     A                      A                      A
 Frequencies --   186.5291               187.8071               395.4652
 Red. masses --    11.9541                 9.1423                 2.8206
 Frc consts  --     0.2451                 0.1900                 0.2599
 IR Inten    --     0.3567                30.3267                 0.0000

                     7                      8                      9
                     A                      A                      A
 Frequencies --   447.3490               483.0508               633.2256
 Red. masses --     3.8623                17.0521                 6.4368
 Frc consts  --     0.4554                 2.3443                 1.5207
 IR Inten    --    13.0266               107.2655                 0.0211

                    10                     11                     12
                     A                      A                      A
 Frequencies --   676.5282               719.1992               740.4453
 Red. masses --     7.0952                 1.6306                 1.9827
 Frc consts  --     1.9133                 0.4969                 0.6405
 IR Inten    --    11.4833                28.6069                14.6803

                    13                     14                     15
                     A                      A                      A
 Frequencies --   872.5642               922.3223               966.7642
 Red. masses --     1.2507                 1.3133                 1.3878
 Frc consts  --     0.5610                 0.6582                 0.7642
 IR Inten    --     0.0000                 0.0601                 0.0000

                    16                     17                     18
                     A                      A                      A
 Frequencies --  1001.4994              1011.7433              1041.2409
 Red. masses --     1.2573                 6.4081                 5.4758
 Frc consts  --     0.7430                 3.8647                 3.4979
 IR Inten    --     0.0028                 7.2127                 0.3108

                    19                     20                     21
                     A                      A                      A
 Frequencies --  1094.5591              1095.2674              1193.8077
 Red. masses --     2.0130                 1.8243                 1.1020
 Frc consts  --     1.4210                 1.2894                 0.9254
 IR Inten    --     8.2571                 0.0612                 0.0773

                    22                     23                     24
                     A                      A                      A
 Frequencies --  1228.9336              1306.6691              1370.4204
 Red. masses --     1.1689                 5.1316                 1.4098
 Frc consts  --     1.0401                 5.1622                 1.5599
 IR Inten    --     0.7546                 4.4669                 2.0146

                    25                     26                     27
                     A                      A                      A
 Frequencies --  1465.3329              1527.9957              1621.9242
 Red. masses --     1.9764                 1.9128                 4.5802
 Frc consts  --     2.5003                 2.6313                 7.0990
 IR Inten    --    12.2441                 0.0083                 0.0093

                    28                     29                     30
                     A                      A                      A
 Frequencies --  1634.3383              3140.2282              3141.3641
 Red. masses --     5.1117                 1.0873                 1.0881
 Frc consts  --     8.0445                 6.3171                 6.3265
 IR Inten    --     0.2066                 2.1060                32.2796

                    31                     32                     33
                     A                      A                      A
 Frequencies --  3176.2500              3185.7302              3201.3365
 Red. masses --     1.0873                 1.0924                 1.0973
 Frc consts  --     6.4627                 6.5321                 6.6258
 IR Inten    --     0.0172                46.4769                37.0688

 - Thermochemistry -
 -------------------
 Temperature   298.150 Kelvin.  Pressure   1.00000 Atm.
 Atom     1 has atomic number 35 and mass  78.91834

 Molecular mass:   179.94251 amu.
 Principal axes and moments of inertia in atomic units:
                           1         2         3
     Eigenvalues --   315.111805128.609275443.72100
           X            1.00000   0.00000   0.00001
           Y           -0.00000   1.00000  -0.00000
           Z           -0.00001   0.00000   1.00000
 This molecule is an asymmetric top.
 Rotational symmetry number  1.
 Rotational temperatures (Kelvin)      0.27487     0.01689     0.01591
 Rotational constants (GHZ):           5.72730     0.35190     0.33153
 Zero-point vibrational energy     239012.6 (Joules/Mol)
                                   57.12539 (Kcal/Mol)
 Warning -- explicit consideration of   8 degrees of freedom as
           vibrations may cause significant error
 Vibrational temperatures:     69.87    81.73   265.50   268.37   270.21
          (Kelvin)            568.99   643.63   695.00   911.07   973.37
                             1034.77  1065.33  1255.42  1327.01  1390.96
                             1440.93  1455.67  1498.11  1574.82  1575.84
                             1717.62  1768.16  1880.00  1971.73  2108.28
                             2198.44  2333.58  2351.45  4518.08  4519.72
                             4569.91  4583.55  4606.00

 Zero-point correction=                           0.091035 (Hartree/Particle)
 Thermal correction to Energy=                    0.098931
 Thermal correction to Enthalpy=                  0.099875
 Thermal correction to Gibbs Free Energy=         0.055706
 Sum of electronic and zero-point Energies=          -3003.424991
 Sum of electronic and thermal Energies=             -3003.417095
 Sum of electronic and thermal Enthalpies=           -3003.416151
 Sum of electronic and thermal Free Energies=        -3003.460320

                     E (Thermal)             CV                S
                      KCal/Mol        Cal/Mol-Kelvin    Cal/Mol-Kelvin
 Total                   62.080             26.981             92.962
 Electronic               0.000              0.000              0.000
 Translational            0.889              2.981             41.469
 Rotational               0.889              2.981             30.554
 Vibrational             60.303             21.019             20.939
 Vibration     1          0.595              1.978              4.875
 Vibration     2          0.596              1.975              4.565
 Vibration     3          0.631              1.861              2.282
 Vibration     4          0.632              1.858              2.262
 Vibration     5          0.632              1.857              2.249
 Vibration     6          0.762              1.480              0.979
 Vibration     7          0.806              1.367              0.804
 Vibration     8          0.839              1.288              0.702

 Normal termination of Gaussian 09 at Sun Oct  3 09:46:14 2021.
 Gaussian 09:  AM64L-G09RevA.02 11-Jun-2009

 ----------------------------------------------------------------------
 #p TD(NStates=10, Root=1) b3lyp/6-31G* volume pop=NPA density=current
 Geom=AllCheck Guess=Read
 ----------------------------------------------------------------------

 Br[Mg]c1ccccc1_conf_0
 ---------------------
 Redundant internal coordinates taken from checkpoint file:
 C6H5BrMg_1ea5_conf_0.chk
 Charge =  0 Multiplicity = 1

                         Standard orientation:
 ---------------------------------------------------------------------
 Center     Atomic      Atomic             Coordinates (Angstroms)
 Number     Number       Type             X           Y           Z
 ---------------------------------------------------------------------
      1         35           0       -3.068826    0.000068    0.000121
      2         12           0       -0.735089   -0.000363   -0.000279
      3          6           0        1.338223   -0.000494   -0.000427
      4          6           0        2.079585    1.200024   -0.000218
      5          6           0        3.476843    1.206424    0.000145
      6          6           0        4.179463    0.000528    0.000345
      7          6           0        3.477684   -1.205864    0.000145
      8          6           0        2.080427   -1.200467   -0.000217
      9          1           0        1.567568    2.162385   -0.000379
     10          1           0        4.015916    2.151111    0.000288
     11          1           0        5.266649    0.000909    0.000668
     12          1           0        4.017423   -2.150170    0.000288
     13          1           0        1.569068   -2.163170   -0.000378
 ---------------------------------------------------------------------

 SCF Done:  E(RB3LYP) =  -3003.51602589     A.U. after    2 cycles

 Excitation energies and oscillator strengths:

 Excited State   1:      Singlet-A      4.6473 eV  266.79 nm  f=0.0102  <S**2>=0.000
      43 -> 45         0.69733
 This state for optimization and/or second-order correction.
 Total Energy, E(TD-HF/TD-KS) =  -3003.34524024
 Copying the excited state density for this state as the 1-particle RhoCI density.

 Excited State   2:      Singlet-A      4.7241 eV  262.45 nm  f=0.0000  <S**2>=0.000
      44 -> 45         0.70034

 Excited State   3:      Singlet-A      5.1623 eV  240.17 nm  f=0.0038  <S**2>=0.000
      43 -> 48        -0.34174
      44 -> 46         0.60822

 Excited State   4:      Singlet-A      5.3676 eV  230.98 nm  f=0.2519  <S**2>=0.000
      42 -> 45         0.66860
      43 -> 46        -0.11867
      43 -> 49        -0.16851

 Excited State   5:      Singlet-A      5.4020 eV  229.52 nm  f=0.0057  <S**2>=0.000
      41 -> 45         0.55263
      42 -> 46         0.43544

 Excited State   6:      Singlet-A      5.4430 eV  227.79 nm  f=0.0365  <S**2>=0.000
      40 -> 45         0.69956

 Excited State   7:      Singlet-A      5.5068 eV  225.15 nm  f=0.3154  <S**2>=0.000
      42 -> 45         0.13726
      43 -> 46         0.66725
      44 -> 48         0.13605

 Excited State   8:      Singlet-A      5.5123 eV  224.92 nm  f=0.0000  <S**2>=0.000
      43 -> 47         0.69989

 Excited State   9:      Singlet-A      5.5195 eV  224.63 nm  f=0.0705  <S**2>=0.000
      41 -> 45        -0.43479
      42 -> 46         0.54409

 Excited State  10:      Singlet-A      5.5864 eV  221.94 nm  f=0.0046  <S**2>=0.000
      44 -> 47         0.69434

 The electronic state is 1-A.
 Alpha  occ. eigenvalues -- -482.87965 -61.84195 -56.35927 -56.35789 -56.35784
 Alpha  occ. eigenvalues --  -46.84562 -10.19005 -10.19002 -10.18993 -10.18763
 Alpha  occ. eigenvalues --  -10.18757 -10.17237  -8.55107  -6.49854  -6.49456
 Alpha  occ. eigenvalues --   -6.49446  -3.13362  -2.61531  -2.61408  -2.61400
 Alpha  occ. eigenvalues --   -2.61083  -2.61082  -1.87998  -1.87937  -1.87337
 Alpha  occ. eigenvalues --   -0.84250  -0.73921  -0.73063  -0.72592  -0.59578
 Alpha  occ. eigenvalues --   -0.58609  -0.50944  -0.44726  -0.43650  -0.41553
 Alpha  occ. eigenvalues --   -0.38614  -0.35879  -0.33696  -0.32893  -0.28134
 Alpha  occ. eigenvalues --   -0.28103  -0.26276  -0.24716  -0.24715
 Alpha virt. eigenvalues --   -0.04514  -0.02725  -0.01509   0.00161   0.01978
 Alpha virt. eigenvalues --    0.06764   0.10840   0.12337   0.12616   0.13833
 Alpha virt. eigenvalues --    0.16535   0.16601   0.17486   0.18593   0.19115

 Mulliken atomic charges:
              1
     1  Br  -0.253482
     2  Mg  -0.075719
     3  C    0.030073
     4  C   -0.154887
     5  C   -0.101947
     6  C   -0.081054
     7  C   -0.101981
     8  C   -0.154954
     9  H    0.175223
    10  H    0.173952
    11  H    0.195613
    12  H    0.173939
    13  H    0.175225
 Sum of Mulliken atomic charges =   0.00000

 Dipole moment (field-independent basis, Debye):
    X=             13.3713    Y=              0.0003    Z=              0.0005  Tot=             13.3713
 Quadrupole moment (field-independent basis, Debye-Ang):
   XX=            -54.0040   YY=            -60.3101   ZZ=            -68.4900
   XY=              0.0026   XZ=              0.0029   YZ=              0.0000

 Summary of Natural Population Analysis:

                                       Natural Population
                Natural  -----------------------------------------------
    Atom  No    Charge         Core      Valence    Rydberg      Total
 -----------------------------------------------------------------------
     Br    1   -0.64882     27.99973     7.63854    0.01055    35.64882
     Mg    2    0.62421      9.99846     1.34833    0.02899    11.37579
      C    3   -0.31544      1.99931     4.28213    0.03400     6.31544
      C    4   -0.20158      1.99918     4.18686    0.01554     6.20158
      C    5   -0.22634      1.99913     4.21288    0.01433     6.22634
      C    6   -0.04676      1.99909     4.03426    0.01341     6.04676
      C    7   -0.22643      1.99913     4.21298    0.01433     6.22643
      C    8   -0.20146      1.99918     4.18673    0.01555     6.20146
      H    9    0.24304      0.00000     0.75446    0.00251     0.75696
      H   10    0.25284      0.00000     0.74613    0.00103     0.74716
      H   11    0.25082      0.00000     0.74858    0.00060     0.74918
      H   12    0.25284      0.00000     0.74613    0.00103     0.74716
      H   13    0.24305      0.00000     0.75445    0.00250     0.75695
 =======================================================================
   * Total *   -0.00004     49.99321    37.85246    0.15437    88.00004

 Normal termination of Gaussian 09 at Sun Oct  3 11:32:35 2021.
