 Gaussian 09, Revision A.02,

 -----------------------------------
 #p opt b3lyp/6-31G* scf=(xqc,tight)
 -----------------------------------

 ---------------------
 Cl[Mg]c1ccccc1_conf_0
 ---------------------
 Symbolic Z-matrix:
 Charge =  0 Multiplicity = 1

 SCF Done:  E(RB3LYP) =  -891.988179446     A.U. after   13 cycles
 SCF Done:  E(RB3LYP) =  -891.996841427     A.U. after   13 cycles
 SCF Done:  E(RB3LYP) =  -891.998191455     A.U. after   14 cycles
 SCF Done:  E(RB3LYP) =  -891.993618642     A.U. after   14 cycles
 SCF Done:  E(RB3LYP) =  -891.998290369     A.U. after   14 cycles
 SCF Done:  E(RB3LYP) =  -891.998330411     A.U. after   13 cycles
 SCF Done:  E(RB3LYP) =  -891.998331530     A.U. after   13 cycles
 SCF Done:  E(RB3LYP) =  -891.998331577     A.U. after   13 cycles
 SCF Done:  E(RB3LYP) =  -891.998331639     A.U. after   13 cycles
 SCF Done:  E(RB3LYP) =  -891.998331684     A.U. after   13 cycles
 SCF Done:  E(RB3LYP) =  -891.998331701     A.U. after    6 cycles
 Optimization completed.
    -- Stationary point found.
 Normal termination of Gaussian 09 at Mon Oct  4 22:15:11 2021.

 ----------------------------------------------------------------------
 #p freq b3lyp/6-31G* volume NMR pop=NPA density=current Geom=AllCheck
 Guess=Read
 ----------------------------------------------------------------------

 Cl[Mg]c1ccccc1_conf_0
 ---------------------
 Redundant internal coordinates taken from checkpoint file:
 C6H5ClMg_d6f6_conf_0.chk
 Charge =  0 Multiplicity = 1

 SCF Done:  E(RB3LYP) =  -891.998331701     A.U. after    1 cycles

  1  Cl   Isotropic =  1043.4873   Anisotropy =   158.3585

  2  Mg   Isotropic =   531.5848   Anisotropy =   255.1140

  3  C    Isotropic =    52.5540   Anisotropy =   190.8443

  4  C    Isotropic =    55.3023   Anisotropy =   162.4856

  5  C    Isotropic =    68.5486   Anisotropy =   164.1827

  6  C    Isotropic =    66.8813   Anisotropy =   168.9247

  7  C    Isotropic =    68.5485   Anisotropy =   164.1831

  8  C    Isotropic =    55.3029   Anisotropy =   162.4877

  9  H    Isotropic =    24.7603   Anisotropy =     7.4039

 10  H    Isotropic =    25.1774   Anisotropy =     5.1933

 11  H    Isotropic =    25.0229   Anisotropy =     4.8989

 12  H    Isotropic =    25.1774   Anisotropy =     5.1933

 13  H    Isotropic =    24.7603   Anisotropy =     7.4036

  Exact polarizability: 141.078   0.000  89.987   0.006   0.000  46.321
 Approx polarizability: 194.064   0.000 148.961   0.010  -0.000  65.039

                     1                      2                      3
                     A                      A                      A
 Frequencies --    47.6228                54.9770               170.1011
 Red. masses --     7.2839                 8.1429                 7.7594
 Frc consts  --     0.0097                 0.0145                 0.1323
 IR Inten    --     6.8277                 5.6198                43.8541

                     4                      5                      6
                     A                      A                      A
 Frequencies --   186.1784               233.7973               395.4424
 Red. masses --     8.9289                12.4784                 2.8240
 Frc consts  --     0.1823                 0.4019                 0.2602
 IR Inten    --    37.7592                 0.0460                 0.0000

                     7                      8                      9
                     A                      A                      A
 Frequencies --   442.7514               521.1885               633.0415
 Red. masses --     3.8750                17.2742                 6.4382
 Frc consts  --     0.4476                 2.7646                 1.5201
 IR Inten    --    12.9163               123.5098                 0.0344

                    10                     11                     12
                     A                      A                      A
 Frequencies --   678.6377               718.2164               736.0415
 Red. masses --     7.2627                 1.8161                 1.7734
 Frc consts  --     1.9707                 0.5520                 0.5661
 IR Inten    --    16.9458                24.4242                19.1736

                    13                     14                     15
                     A                      A                      A
 Frequencies --   871.3561               920.1769               965.1668
 Red. masses --     1.2510                 1.3044                 1.3865
 Frc consts  --     0.5596                 0.6508                 0.7610
 IR Inten    --     0.0000                 0.0578                 0.0000

                    16                     17                     18
                     A                      A                      A
 Frequencies --  1000.8032              1011.9133              1040.8779
 Red. masses --     1.2552                 6.4096                 5.5192
 Frc consts  --     0.7407                 3.8669                 3.5231
 IR Inten    --     0.0018                 7.0303                 0.2970

                    19                     20                     21
                     A                      A                      A
 Frequencies --  1093.8275              1095.5203              1194.0237
 Red. masses --     2.0082                 1.8209                 1.1021
 Frc consts  --     1.4156                 1.2876                 0.9258
 IR Inten    --     7.6562                 0.0235                 0.0746

                    22                     23                     24
                     A                      A                      A
 Frequencies --  1228.5130              1306.5596              1369.5648
 Red. masses --     1.1678                 5.0677                 1.4149
 Frc consts  --     1.0384                 5.0971                 1.5636
 IR Inten    --     0.5773                 4.6638                 2.0772

                    25                     26                     27
                     A                      A                      A
 Frequencies --  1465.5850              1527.4838              1621.9483
 Red. masses --     1.9768                 1.9147                 4.5905
 Frc consts  --     2.5017                 2.6320                 7.1151
 IR Inten    --    12.8748                 0.0263                 0.0174

                    28                     29                     30
                     A                      A                      A
 Frequencies --  1634.1894              3141.0824              3142.2265
 Red. masses --     5.1107                 1.0873                 1.0882
 Frc consts  --     8.0414                 6.3208                 6.3304
 IR Inten    --     0.2029                 2.1211                32.0061

                    31                     32                     33
                     A                      A                      A
 Frequencies --  3176.8563              3186.3436              3201.8158
 Red. masses --     1.0873                 1.0924                 1.0973
 Frc consts  --     6.4654                 6.5347                 6.6279
 IR Inten    --     0.0037                45.7105                35.3147

 - Thermochemistry -
 -------------------
 Temperature   298.150 Kelvin.  Pressure   1.00000 Atm.
 Atom     1 has atomic number 17 and mass  34.96885

 Molecular mass:   135.99302 amu.
 Principal axes and moments of inertia in atomic units:
                           1         2         3
     Eigenvalues --   315.261723360.642033675.90372
           X            1.00000   0.00000   0.00000
           Y           -0.00000   1.00000  -0.00000
           Z           -0.00000   0.00000   1.00000
 This molecule is an asymmetric top.
 Rotational symmetry number  1.
 Rotational temperatures (Kelvin)      0.27474     0.02577     0.02356
 Rotational constants (GHZ):           5.72458     0.53702     0.49097
 Zero-point vibrational energy     239335.9 (Joules/Mol)
                                   57.20264 (Kcal/Mol)
 Warning -- explicit consideration of   8 degrees of freedom as
           vibrations may cause significant error
 Vibrational temperatures:     68.52    79.10   244.74   267.87   336.38
          (Kelvin)            568.95   637.02   749.87   910.80   976.41
                             1033.35  1059.00  1253.69  1323.93  1388.66
                             1439.93  1455.92  1497.59  1573.77  1576.21
                             1717.93  1767.55  1879.85  1970.50  2108.65
                             2197.71  2333.62  2351.23  4519.31  4520.96
                             4570.78  4584.43  4606.69

 Zero-point correction=                           0.091158 (Hartree/Particle)
 Thermal correction to Energy=                    0.098992
 Thermal correction to Enthalpy=                  0.099936
 Thermal correction to Gibbs Free Energy=         0.056650
 Sum of electronic and zero-point Energies=           -891.907173
 Sum of electronic and thermal Energies=              -891.899340
 Sum of electronic and thermal Enthalpies=            -891.898396
 Sum of electronic and thermal Free Energies=         -891.941682

                     E (Thermal)             CV                S
                      KCal/Mol        Cal/Mol-Kelvin    Cal/Mol-Kelvin
 Total                   62.118             26.873             91.103
 Electronic               0.000              0.000              0.000
 Translational            0.889              2.981             40.634
 Rotational               0.889              2.981             29.744
 Vibrational             60.341             20.912             20.724
 Vibration     1          0.595              1.978              4.914
 Vibration     2          0.596              1.976              4.630
 Vibration     3          0.625              1.879              2.434
 Vibration     4          0.632              1.859              2.266
 Vibration     5          0.654              1.789              1.850
 Vibration     6          0.762              1.480              0.980
 Vibration     7          0.802              1.377              0.818
 Vibration     8          0.876              1.203              0.607

 Optimization completed.
    -- Stationary point found.
 Normal termination of Gaussian 09 at Mon Oct  4 22:32:26 2021.
 Gaussian 09:  AM64L-G09RevA.02 11-Jun-2009

 ----------------------------------------------------------------------
 #p TD(NStates=10, Root=1) b3lyp/6-31G* volume pop=NPA density=current
 Geom=AllCheck Guess=Read
 ----------------------------------------------------------------------

 Cl[Mg]c1ccccc1_conf_0
 ---------------------
 Redundant internal coordinates taken from checkpoint file:
 C6H5ClMg_d6f6_conf_0.chk
 Charge =  0 Multiplicity = 1

                         Standard orientation:
 ---------------------------------------------------------------------
 Center     Atomic      Atomic             Coordinates (Angstroms)
 Number     Number       Type             X           Y           Z
 ---------------------------------------------------------------------
      1         17           0       -3.768020    0.000014    0.000126
      2         12           0       -1.553859   -0.000036   -0.000140
      3          6           0        0.521292   -0.000055   -0.000213
      4          6           0        1.262108    1.200761   -0.000106
      5          6           0        2.659369    1.206287    0.000069
      6          6           0        3.361438    0.000058    0.000169
      7          6           0        2.659461   -1.206226    0.000069
      8          6           0        1.262201   -1.200811   -0.000106
      9          1           0        0.750392    2.163232   -0.000182
     10          1           0        3.198858    2.150691    0.000142
     11          1           0        4.448597    0.000100    0.000329
     12          1           0        3.199024   -2.150588    0.000142
     13          1           0        0.750557   -2.163319   -0.000181
 ---------------------------------------------------------------------

 SCF Done:  E(RB3LYP) =  -891.998331701     A.U. after    1 cycles

 Excitation energies and oscillator strengths:

 Excited State   1:      Singlet-A      4.6114 eV  268.87 nm  f=0.0126  <S**2>=0.000
      34 -> 36         0.70349
 This state for optimization and/or second-order correction.
 Total Energy, E(TD-HF/TD-KS) =  -891.828867476
 Copying the excited state density for this state as the 1-particle RhoCI density.

 Excited State   2:      Singlet-A      4.6829 eV  264.76 nm  f=0.0000  <S**2>=0.000
      35 -> 36         0.70584

 Excited State   3:      Singlet-A      5.1743 eV  239.62 nm  f=0.0036  <S**2>=0.000
      34 -> 39        -0.35049
      35 -> 37         0.60958

 Excited State   4:      Singlet-A      5.3753 eV  230.66 nm  f=0.2714  <S**2>=0.000
      33 -> 36         0.67787
      34 -> 40        -0.16587

 Excited State   5:      Singlet-A      5.5239 eV  224.45 nm  f=0.0182  <S**2>=0.000
      32 -> 36         0.15159
      33 -> 37         0.68279

 Excited State   6:      Singlet-A      5.5342 eV  224.03 nm  f=0.2724  <S**2>=0.000
      33 -> 36         0.10364
      34 -> 37         0.67604
      35 -> 39         0.14487

 Excited State   7:      Singlet-A      5.5558 eV  223.16 nm  f=0.0000  <S**2>=0.000
      34 -> 38         0.70531

 Excited State   8:      Singlet-A      5.6255 eV  220.40 nm  f=0.0012  <S**2>=0.000
      35 -> 38         0.70392

 Excited State   9:      Singlet-A      5.7745 eV  214.71 nm  f=0.0138  <S**2>=0.000
      31 -> 36         0.54863
      33 -> 38         0.42771

 Excited State  10:      Singlet-A      5.8224 eV  212.94 nm  f=0.0655  <S**2>=0.000
      32 -> 36         0.68790
      33 -> 37        -0.15107

 The electronic state is 1-A.
 Alpha  occ. eigenvalues -- -101.50004 -46.84736 -10.19177 -10.19176 -10.19140
 Alpha  occ. eigenvalues --  -10.18913 -10.18907 -10.17486  -9.41701  -7.17625
 Alpha  occ. eigenvalues --   -7.17354  -7.17348  -3.13507  -1.88160  -1.88099
 Alpha  occ. eigenvalues --   -1.87464  -0.84410  -0.76768  -0.74082  -0.73211
 Alpha  occ. eigenvalues --   -0.59740  -0.58766  -0.51098  -0.44878  -0.43815
 Alpha  occ. eigenvalues --   -0.41717  -0.38776  -0.36038  -0.34200  -0.33869
 Alpha  occ. eigenvalues --   -0.29935  -0.29902  -0.26582  -0.24886  -0.24871
 Alpha virt. eigenvalues --   -0.04803  -0.02803  -0.01500   0.00005   0.01912
 Alpha virt. eigenvalues --    0.06745   0.10787   0.12679   0.13020   0.13871
 Alpha virt. eigenvalues --    0.16489   0.16581   0.17856   0.18498   0.19097

 Mulliken atomic charges:
              1
     1  Cl  -0.292870
     2  Mg  -0.033278
     3  C    0.020711
     4  C   -0.155070
     5  C   -0.101498
     6  C   -0.080361
     7  C   -0.101502
     8  C   -0.155077
     9  H    0.176308
    10  H    0.174823
    11  H    0.196684
    12  H    0.174822
    13  H    0.176309
 Sum of Mulliken atomic charges =  -0.00000

 Dipole moment (field-independent basis, Debye):
    X=             13.8339    Y=              0.0000    Z=              0.0005  Tot=             13.8339
 Quadrupole moment (field-independent basis, Debye-Ang):
   XX=            -71.9476   YY=            -54.1311   ZZ=            -62.3946
   XY=              0.0004   XZ=              0.0012   YZ=              0.0000

 Summary of Natural Population Analysis:

                                       Natural Population
                Natural  -----------------------------------------------
    Atom  No    Charge         Core      Valence    Rydberg      Total
 -----------------------------------------------------------------------
     Cl    1   -0.72172      9.99990     7.71487    0.00695    17.72172
     Mg    2    0.69308      9.99844     1.28227    0.02621    11.30692
      C    3   -0.31717      1.99932     4.28274    0.03511     6.31717
      C    4   -0.20159      1.99918     4.18692    0.01549     6.20159
      C    5   -0.22570      1.99913     4.21223    0.01434     6.22570
      C    6   -0.04490      1.99909     4.03240    0.01341     6.04490
      C    7   -0.22572      1.99913     4.21224    0.01434     6.22572
      C    8   -0.20157      1.99918     4.18690    0.01549     6.20157
      H    9    0.24381      0.00000     0.75386    0.00233     0.75619
      H   10    0.25323      0.00000     0.74575    0.00102     0.74677
      H   11    0.25118      0.00000     0.74823    0.00059     0.74882
      H   12    0.25323      0.00000     0.74575    0.00102     0.74677
      H   13    0.24381      0.00000     0.75386    0.00233     0.75619
 =======================================================================
   * Total *   -0.00003     31.99337    37.85803    0.14864    70.00003

 Normal termination of Gaussian 09 at Mon Oct  4 23:19:30 2021.
