 Gaussian 09, Revision A.02,

 -----------------------------------
 #p opt b3lyp/6-31G* scf=(xqc,tight)
 -----------------------------------

 -------------------
 [Li]c1ccccc1_conf_0
 -------------------
 Symbolic Z-matrix:
 Charge =  0 Multiplicity = 1

 SCF Done:  E(RB3LYP) =  -239.135418043     A.U. after   13 cycles
 SCF Done:  E(RB3LYP) =  -239.138165254     A.U. after   11 cycles
 SCF Done:  E(RB3LYP) =  -239.138438578     A.U. after   10 cycles
 SCF Done:  E(RB3LYP) =  -239.138440714     A.U. after    8 cycles
 Optimization completed.
    -- Stationary point found.
 Normal termination of Gaussian 09 at Sat Oct  2 10:51:07 2021.

 ----------------------------------------------------------------------
 #p freq b3lyp/6-31G* volume NMR pop=NPA density=current Geom=AllCheck
 Guess=Read
 ----------------------------------------------------------------------

 [Li]c1ccccc1_conf_0
 -------------------
 Redundant internal coordinates taken from checkpoint file:
 C6H5Li_031b_conf_0.chk
 Charge =  0 Multiplicity = 1

 SCF Done:  E(RB3LYP) =  -239.138440714     A.U. after    1 cycles

  1  Li   Isotropic =    90.9449   Anisotropy =    14.9920

  2  C    Isotropic =    31.5066   Anisotropy =   241.6987

  3  C    Isotropic =    53.7605   Anisotropy =   155.7501

  4  C    Isotropic =    70.6223   Anisotropy =   157.7962

  5  C    Isotropic =    70.8295   Anisotropy =   160.0577

  6  C    Isotropic =    70.6229   Anisotropy =   157.7947

  7  C    Isotropic =    53.7580   Anisotropy =   155.7322

  8  H    Isotropic =    24.5558   Anisotropy =     6.5010

  9  H    Isotropic =    25.4960   Anisotropy =     5.5255

 10  H    Isotropic =    25.3951   Anisotropy =     5.0601

 11  H    Isotropic =    25.4962   Anisotropy =     5.5254

 12  H    Isotropic =    24.5555   Anisotropy =     6.5005

  Exact polarizability: 112.068   0.006  81.727   0.000  -0.002  39.272
 Approx polarizability: 157.972   0.008 134.933  -0.001   0.000  52.250

                     1                      2                      3
                     A                      A                      A
 Frequencies --   119.6721               128.0446               389.6195
 Red. masses --     5.9847                 5.6154                 2.7683
 Frc consts  --     0.0505                 0.0542                 0.2476
 IR Inten    --    81.5845                83.8519                 0.0000

                     4                      5                      6
                     A                      A                      A
 Frequencies --   434.3494               490.7179               635.0566
 Red. masses --     3.8434                 6.9341                 6.4280
 Frc consts  --     0.4272                 0.9838                 1.5274
 IR Inten    --    19.0397                41.5302                 0.0887

                     7                      8                      9
                     A                      A                      A
 Frequencies --   678.6124               718.8892               729.0385
 Red. masses --     6.5345                 1.1850                 3.8379
 Frc consts  --     1.7730                 0.3608                 1.2018
 IR Inten    --     7.4174                31.6784                 0.6269

                    10                     11                     12
                     A                      A                      A
 Frequencies --   870.1922               904.3700               961.8892
 Red. masses --     1.2519                 1.3114                 1.4017
 Frc consts  --     0.5585                 0.6319                 0.7641
 IR Inten    --     0.0000                 0.0272                 0.0000

                    13                     14                     15
                     A                      A                      A
 Frequencies --   988.4337              1012.0033              1029.7160
 Red. masses --     1.2240                 6.4320                 6.9810
 Frc consts  --     0.7046                 3.8812                 4.3612
 IR Inten    --     0.0005                 4.2817                 0.0485

                    16                     17                     18
                     A                      A                      A
 Frequencies --  1082.8873              1084.6806              1187.2385
 Red. masses --     1.8749                 1.8714                 1.0987
 Frc consts  --     1.2954                 1.2972                 0.9125
 IR Inten    --     0.3181                 5.1630                 0.0548

                    19                     20                     21
                     A                      A                      A
 Frequencies --  1223.6809              1291.0407              1364.6097
 Red. masses --     1.1743                 5.0743                 1.4249
 Frc consts  --     1.0360                 4.9832                 1.5634
 IR Inten    --     0.2373                12.6193                 0.5747

                    22                     23                     24
                     A                      A                      A
 Frequencies --  1458.3997              1517.2157              1614.4794
 Red. masses --     1.9378                 1.9002                 4.4555
 Frc consts  --     2.4284                 2.5772                 6.8425
 IR Inten    --    10.3435                 0.2765                 0.6054

                    25                     26                     27
                     A                      A                      A
 Frequencies --  1624.5856              3097.9514              3098.4802
 Red. masses --     5.0145                 1.0858                 1.0867
 Frc consts  --     7.7977                 6.1399                 6.1469
 IR Inten    --     0.0050                 5.2333                72.6128

                    28                     29                     30
                     A                      A                      A
 Frequencies --  3152.5209              3160.8250              3183.8208
 Red. masses --     1.0864                 1.0916                 1.0966
 Frc consts  --     6.3616                 6.4257                 6.5491
 IR Inten    --     1.7763                83.1571                57.7980

 - Thermochemistry -
 -------------------
 Temperature   298.150 Kelvin.  Pressure   1.00000 Atm.
 Atom     1 has atomic number  3 and mass   7.01600

 Molecular mass:    84.05513 amu.
 Principal axes and moments of inertia in atomic units:
                           1         2         3
     Eigenvalues --   312.68321 579.44190 892.12510
           X            1.00000  -0.00002  -0.00000
           Y            0.00002   1.00000  -0.00000
           Z            0.00000   0.00000   1.00000
 This molecule is an asymmetric top.
 Rotational symmetry number  1.
 Rotational temperatures (Kelvin)      0.27700     0.14948     0.09709
 Rotational constants (GHZ):           5.77179     3.11462     2.02297
 Zero-point vibrational energy     234665.6 (Joules/Mol)
                                   56.08642 (Kcal/Mol)
 Warning -- explicit consideration of   5 degrees of freedom as
           vibrations may cause significant error
 Vibrational temperatures:    172.18   184.23   560.57   624.93   706.03
          (Kelvin)            913.70   976.37  1034.32  1048.92  1252.01
                             1301.19  1383.94  1422.13  1456.05  1481.53
                             1558.03  1560.61  1708.17  1760.60  1857.52
                             1963.37  2098.31  2182.93  2322.87  2337.41
                             4457.26  4458.02  4535.77  4547.72  4580.80

 Zero-point correction=                           0.089379 (Hartree/Particle)
 Thermal correction to Energy=                    0.095275
 Thermal correction to Enthalpy=                  0.096220
 Thermal correction to Gibbs Free Energy=         0.059800
 Sum of electronic and zero-point Energies=           -239.049061
 Sum of electronic and thermal Energies=              -239.043165
 Sum of electronic and thermal Enthalpies=            -239.042221
 Sum of electronic and thermal Free Energies=         -239.078641

                     E (Thermal)             CV                S
                      KCal/Mol        Cal/Mol-Kelvin    Cal/Mol-Kelvin
 Total                   59.786             21.452             76.652
 Electronic               0.000              0.000              0.000
 Translational            0.889              2.981             39.200
 Rotational               0.889              2.981             26.583
 Vibrational             58.009             15.490             10.869
 Vibration     1          0.609              1.933              3.106
 Vibration     2          0.611              1.925              2.975
 Vibration     3          0.758              1.492              1.002
 Vibration     4          0.795              1.395              0.845
 Vibration     5          0.847              1.271              0.682

 Optimization completed.
    -- Stationary point found.
 Normal termination of Gaussian 09 at Sat Oct  2 11:21:03 2021.
 Gaussian 09:  AM64L-G09RevA.02 11-Jun-2009

 ----------------------------------------------------------------------
 #p TD(NStates=10, Root=1) b3lyp/6-31G* volume pop=NPA density=current
 Geom=AllCheck Guess=Read
 ----------------------------------------------------------------------

 [Li]c1ccccc1_conf_0
 -------------------
 Redundant internal coordinates taken from checkpoint file:
 C6H5Li_031b_conf_0.chk
 Charge =  0 Multiplicity = 1

                         Standard orientation:
 ---------------------------------------------------------------------
 Center     Atomic      Atomic             Coordinates (Angstroms)
 Number     Number       Type             X           Y           Z
 ---------------------------------------------------------------------
      1          3           0        3.253486    0.000081    0.000081
      2          6           0        1.280089    0.000412   -0.000035
      3          6           0        0.515120    1.191352   -0.000017
      4          6           0       -0.883787    1.203713    0.000006
      5          6           0       -1.590323   -0.000375    0.000016
      6          6           0       -0.883150   -1.204080    0.000006
      7          6           0        0.515758   -1.190951   -0.000017
      8          1           0        1.020727    2.160505   -0.000031
      9          1           0       -1.423969    2.149682    0.000015
     10          1           0       -2.678502   -0.000665    0.000037
     11          1           0       -1.422818   -2.150343    0.000015
     12          1           0        1.021871   -2.159849   -0.000031
 ---------------------------------------------------------------------

 SCF Done:  E(RB3LYP) =  -239.138440714     A.U. after    1 cycles

 Excitation energies and oscillator strengths:

 Excited State   1:      Singlet-A      2.9986 eV  413.47 nm  f=0.0939  <S**2>=0.000
      22 -> 23         0.70494
 This state for optimization and/or second-order correction.
 Total Energy, E(TD-HF/TD-KS) =  -239.028243460
 Copying the excited state density for this state as the 1-particle RhoCI density.

 Excited State   2:      Singlet-A      3.3066 eV  374.96 nm  f=0.0127  <S**2>=0.000
      21 -> 23         0.70459

 Excited State   3:      Singlet-A      3.5894 eV  345.41 nm  f=0.0000  <S**2>=0.000
      20 -> 23         0.70630

 Excited State   4:      Singlet-A      4.2426 eV  292.23 nm  f=0.0720  <S**2>=0.000
      22 -> 24         0.70498

 Excited State   5:      Singlet-A      4.2582 eV  291.16 nm  f=0.0336  <S**2>=0.000
      22 -> 25         0.70300

 Excited State   6:      Singlet-A      4.7799 eV  259.39 nm  f=0.0000  <S**2>=0.000
      21 -> 25         0.70551

 Excited State   7:      Singlet-A      4.8759 eV  254.28 nm  f=0.1792  <S**2>=0.000
      21 -> 24         0.69961

 Excited State   8:      Singlet-A      4.8997 eV  253.05 nm  f=0.0017  <S**2>=0.000
      20 -> 24         0.66340
      21 -> 26         0.23805

 Excited State   9:      Singlet-A      5.0233 eV  246.82 nm  f=0.0000  <S**2>=0.000
      22 -> 26         0.70645

 Excited State  10:      Singlet-A      5.0251 eV  246.73 nm  f=0.0020  <S**2>=0.000
      20 -> 25         0.70631

 The electronic state is 1-A.
 Alpha  occ. eigenvalues --  -10.15061 -10.14825 -10.14818 -10.14443 -10.14442
 Alpha  occ. eigenvalues --  -10.11270  -2.00138  -0.79824  -0.69595  -0.68428
 Alpha  occ. eigenvalues --   -0.55168  -0.54217  -0.46745  -0.40671  -0.39024
 Alpha  occ. eigenvalues --   -0.37303  -0.34118  -0.31560  -0.29076  -0.20565
 Alpha  occ. eigenvalues --   -0.20025  -0.18882
 Alpha virt. eigenvalues --   -0.05062   0.00069   0.00427   0.04312   0.05051
 Alpha virt. eigenvalues --    0.05894   0.11601   0.11810   0.13174   0.14080
 Alpha virt. eigenvalues --    0.18467   0.20107   0.21374   0.21703   0.22725

 Mulliken atomic charges:
              1
     1  Li  -0.017662
     2  C   -0.088099
     3  C   -0.181599
     4  C   -0.100404
     5  C   -0.131472
     6  C   -0.100407
     7  C   -0.181514
     8  H    0.164743
     9  H    0.157124
    10  H    0.157393
    11  H    0.157132
    12  H    0.164766
 Sum of Mulliken atomic charges =  -0.00000

 Dipole moment (field-independent basis, Debye):
    X=             -6.8321    Y=              0.0021    Z=             -0.0005  Tot=              6.8321
 Quadrupole moment (field-independent basis, Debye-Ang):
   XX=            -73.4215   YY=            -35.9052   ZZ=            -44.9469
   XY=              0.0090   XZ=             -0.0025   YZ=             -0.0000

 Summary of Natural Population Analysis:

                                       Natural Population
                Natural  -----------------------------------------------
    Atom  No    Charge         Core      Valence    Rydberg      Total
 -----------------------------------------------------------------------
     Li    1    0.12688      1.99572     0.87479    0.00261     2.87312
      C    2   -0.13955      1.99877     4.11986    0.02092     6.13955
      C    3   -0.29399      1.99908     4.28010    0.01481     6.29399
      C    4   -0.22631      1.99904     4.21363    0.01365     6.22631
      C    5   -0.21436      1.99907     4.20183    0.01346     6.21436
      C    6   -0.22631      1.99904     4.21362    0.01365     6.22631
      C    7   -0.29400      1.99908     4.28011    0.01481     6.29400
      H    8    0.25225      0.00000     0.74757    0.00018     0.74775
      H    9    0.25358      0.00000     0.74572    0.00070     0.74642
      H   10    0.25099      0.00000     0.74844    0.00057     0.74901
      H   11    0.25358      0.00000     0.74571    0.00070     0.74642
      H   12    0.25226      0.00000     0.74757    0.00018     0.74774
 =======================================================================
   * Total *   -0.00498     13.98980    29.91894    0.09624    44.00498

 Normal termination of Gaussian 09 at Sat Oct  2 12:55:00 2021.
