 Gaussian 09, Revision A.02,

 -----------------------------------
 #p opt b3lyp/6-31G* scf=(xqc,tight)
 -----------------------------------

 --------------------
 CC(=O)c1cccs1_conf_0
 --------------------
 Symbolic Z-matrix:
 Charge =  0 Multiplicity = 1

 SCF Done:  E(RB3LYP) =  -705.651329750     A.U. after   15 cycles
 SCF Done:  E(RB3LYP) =  -705.653168087     A.U. after   13 cycles
 SCF Done:  E(RB3LYP) =  -705.653283115     A.U. after   11 cycles
 SCF Done:  E(RB3LYP) =  -705.653279613     A.U. after   10 cycles
 SCF Done:  E(RB3LYP) =  -705.653295435     A.U. after    9 cycles
 SCF Done:  E(RB3LYP) =  -705.653296638     A.U. after    9 cycles
 SCF Done:  E(RB3LYP) =  -705.653296826     A.U. after    8 cycles
 SCF Done:  E(RB3LYP) =  -705.653296961     A.U. after    7 cycles
 SCF Done:  E(RB3LYP) =  -705.653297136     A.U. after    7 cycles
 SCF Done:  E(RB3LYP) =  -705.653297288     A.U. after    7 cycles
 SCF Done:  E(RB3LYP) =  -705.653297345     A.U. after   15 cycles
 Optimization completed.
    -- Stationary point found.
 Normal termination of Gaussian 09 at Mon Oct  4 08:50:22 2021.

 ----------------------------------------------------------------------
 #p freq b3lyp/6-31G* volume NMR pop=NPA density=current Geom=AllCheck
 Guess=Read
 ----------------------------------------------------------------------

 CC(=O)c1cccs1_conf_0
 --------------------
 Redundant internal coordinates taken from checkpoint file:
 C6H6OS_d8ec_conf_0.chk
 Charge =  0 Multiplicity = 1

 SCF Done:  E(RB3LYP) =  -705.653297345     A.U. after    1 cycles

  1  C    Isotropic =   164.3211   Anisotropy =    42.8041

  2  C    Isotropic =    11.8750   Anisotropy =   147.5341

  3  O    Isotropic =  -249.6210   Anisotropy =   854.7101

  4  C    Isotropic =    44.3974   Anisotropy =    95.9527

  5  C    Isotropic =    67.0265   Anisotropy =   137.9075

  6  C    Isotropic =    70.5911   Anisotropy =   122.3481

  7  C    Isotropic =    57.1273   Anisotropy =   142.7309

  8  S    Isotropic =   305.5324   Anisotropy =   176.4776

  9  H    Isotropic =    30.2935   Anisotropy =     6.5618

 10  H    Isotropic =    29.7040   Anisotropy =     4.6046

 11  H    Isotropic =    29.7041   Anisotropy =     4.6051

 12  H    Isotropic =    25.0149   Anisotropy =     3.9614

 13  H    Isotropic =    25.3691   Anisotropy =     4.0374

 14  H    Isotropic =    24.9579   Anisotropy =     3.6821

  Exact polarizability: 105.605   3.010  87.982   0.000   0.000  38.251
 Approx polarizability: 167.306  17.004 168.153   0.000   0.000  59.088

                     1                      2                      3
                     A                      A                      A
 Frequencies --    77.4501               105.0065               167.7973
 Red. masses --     2.2009                 1.3889                 4.9095
 Frc consts  --     0.0078                 0.0090                 0.0814
 IR Inten    --     2.4203                 0.2040                 0.0248

                     4                      5                      6
                     A                      A                      A
 Frequencies --   173.1851               337.8733               445.9280
 Red. masses --     5.2447                 4.1101                 4.9619
 Frc consts  --     0.0927                 0.2764                 0.5813
 IR Inten    --     4.7873                 0.1929                 0.2750

                     7                      8                      9
                     A                      A                      A
 Frequencies --   457.1169               568.4778               596.2180
 Red. masses --     7.2381                 3.1028                 4.1706
 Frc consts  --     0.8911                 0.5908                 0.8735
 IR Inten    --     1.6184                 0.1849                27.3005

                    10                     11                     12
                     A                      A                      A
 Frequencies --   623.8633               679.7680               733.2942
 Red. masses --     2.8565                 6.9655                 1.1659
 Frc consts  --     0.6550                 1.8964                 0.3694
 IR Inten    --     5.6282                 2.1638                59.3212

                    13                     14                     15
                     A                      A                      A
 Frequencies --   751.5637               852.5501               867.8471
 Red. masses --     6.6267                 1.2943                 4.2083
 Frc consts  --     2.2054                 0.5543                 1.8674
 IR Inten    --     3.5762                 4.6014                19.5261

                    16                     17                     18
                     A                      A                      A
 Frequencies --   922.2504               937.3046              1049.3053
 Red. masses --     1.3344                 3.3612                 1.7757
 Frc consts  --     0.6687                 1.7398                 1.1519
 IR Inten    --     0.5500                21.5567                17.0213

                    19                     20                     21
                     A                      A                      A
 Frequencies --  1054.7978              1092.7318              1121.5585
 Red. masses --     1.7791                 1.8017                 1.1552
 Frc consts  --     1.1662                 1.2675                 0.8562
 IR Inten    --     3.8336                11.1157                 6.2183

                    22                     23                     24
                     A                      A                      A
 Frequencies --  1265.4700              1299.8973              1400.5744
 Red. masses --     1.5979                 3.9114                 2.4627
 Frc consts  --     1.5076                 3.8941                 2.8463
 IR Inten    --     0.9601               170.8815                 9.6224

                    25                     26                     27
                     A                      A                      A
 Frequencies --  1408.9415              1474.2544              1498.4210
 Red. masses --     1.3351                 5.2926                 1.0629
 Frc consts  --     1.5615                 6.7774                 1.4061
 IR Inten    --    25.0999                86.0743                 6.7744

                    28                     29                     30
                     A                      A                      A
 Frequencies --  1505.0547              1583.1894              1761.6061
 Red. masses --     1.0478                 5.0190                10.7329
 Frc consts  --     1.3984                 7.4120                19.6238
 IR Inten    --     9.4119                17.4281               195.1844

                    31                     32                     33
                     A                      A                      A
 Frequencies --  3056.1915              3117.2826              3170.8756
 Red. masses --     1.0375                 1.1005                 1.1017
 Frc consts  --     5.7094                 6.3005                 6.5262
 IR Inten    --     3.0342                 9.4910                 8.9969

                    34                     35                     36
                     A                      A                      A
 Frequencies --  3221.7522              3235.4898              3265.3695
 Red. masses --     1.0882                 1.0953                 1.0972
 Frc consts  --     6.6552                 6.7554                 6.8928
 IR Inten    --     5.8319                 5.0589                 0.9835

 - Thermochemistry -
 -------------------
 Temperature   298.150 Kelvin.  Pressure   1.00000 Atm.
 Atom     1 has atomic number  6 and mass  12.00000

 Molecular mass:   126.01394 amu.
 Principal axes and moments of inertia in atomic units:
                           1         2         3
     Eigenvalues --   508.026751285.458031782.22932
           X            0.99959  -0.02873   0.00000
           Y            0.02873   0.99959   0.00000
           Z           -0.00000  -0.00000   1.00000
 This molecule is an asymmetric top.
 Rotational symmetry number  1.
 Warning -- assumption of classical behavior for rotation
           may cause significant error
 Rotational temperatures (Kelvin)      0.17049     0.06738     0.04860
 Rotational constants (GHZ):           3.55245     1.40397     1.01263
 Zero-point vibrational energy     274424.9 (Joules/Mol)
                                   65.58912 (Kcal/Mol)
 Warning -- explicit consideration of   9 degrees of freedom as
           vibrations may cause significant error
 Vibrational temperatures:    111.43   151.08   241.42   249.17   486.12
          (Kelvin)            641.59   657.69   817.91   857.82   897.60
                              978.03  1055.05  1081.33  1226.63  1248.64
                             1326.91  1348.57  1509.71  1517.62  1572.20
                             1613.67  1820.73  1870.26  2015.11  2027.15
                             2121.12  2155.89  2165.44  2277.85  2534.56
                             4397.17  4485.07  4562.18  4635.38  4655.14
                             4698.13

 Zero-point correction=                           0.104523 (Hartree/Particle)
 Thermal correction to Energy=                    0.112168
 Thermal correction to Enthalpy=                  0.113112
 Thermal correction to Gibbs Free Energy=         0.071706
 Sum of electronic and zero-point Energies=           -705.548774
 Sum of electronic and thermal Energies=              -705.541129
 Sum of electronic and thermal Enthalpies=            -705.540185
 Sum of electronic and thermal Free Energies=         -705.581591

                     E (Thermal)             CV                S
                      KCal/Mol        Cal/Mol-Kelvin    Cal/Mol-Kelvin
 Total                   70.387             27.503             87.146
 Electronic               0.000              0.000              0.000
 Translational            0.889              2.981             40.407
 Rotational               0.889              2.981             28.544
 Vibrational             68.609             21.541             18.194
 Vibration     1          0.599              1.964              3.954
 Vibration     2          0.605              1.945              3.359
 Vibration     3          0.625              1.882              2.460
 Vibration     4          0.627              1.875              2.401
 Vibration     5          0.718              1.600              1.222
 Vibration     6          0.805              1.370              0.808
 Vibration     7          0.815              1.345              0.775
 Vibration     8          0.924              1.099              0.507
 Vibration     9          0.954              1.040              0.456

 Optimization completed.
    -- Stationary point found.
 Normal termination of Gaussian 09 at Mon Oct  4 09:14:31 2021.
 Gaussian 09:  AM64L-G09RevA.02 11-Jun-2009

 ----------------------------------------------------------------------
 #p TD(NStates=10, Root=1) b3lyp/6-31G* volume pop=NPA density=current
 Geom=AllCheck Guess=Read
 ----------------------------------------------------------------------

 CC(=O)c1cccs1_conf_0
 --------------------
 Redundant internal coordinates taken from checkpoint file:
 C6H6OS_d8ec_conf_0.chk
 Charge =  0 Multiplicity = 1

                         Standard orientation:
 ---------------------------------------------------------------------
 Center     Atomic      Atomic             Coordinates (Angstroms)
 Number     Number       Type             X           Y           Z
 ---------------------------------------------------------------------
      1          6           0       -2.569716    0.998713   -0.000004
      2          6           0       -1.591837   -0.165634   -0.000002
      3          8           0       -1.978765   -1.326531    0.000015
      4          6           0       -0.153476    0.151458   -0.000004
      5          6           0        0.490125    1.371791   -0.000011
      6          6           0        1.905614    1.256681    0.000012
      7          6           0        2.319940   -0.052578    0.000008
      8         16           0        0.998559   -1.163402   -0.000009
      9          1           0       -3.586602    0.602415   -0.000092
     10          1           0       -2.424875    1.630492   -0.884168
     11          1           0       -2.424997    1.630371    0.884270
     12          1           0       -0.036088    2.320275   -0.000012
     13          1           0        2.584397    2.102487    0.000022
     14          1           0        3.337437   -0.421946    0.000016
 ---------------------------------------------------------------------

 SCF Done:  E(RB3LYP) =  -705.653297345     A.U. after    1 cycles

 Excitation energies and oscillator strengths:

 Excited State   1:      Singlet-A      3.7254 eV  332.81 nm  f=0.0001  <S**2>=0.000
      32 -> 34         0.69535
      32 -> 35         0.11258
 This state for optimization and/or second-order correction.
 Total Energy, E(TD-HF/TD-KS) =  -705.516390974
 Copying the excited state density for this state as the 1-particle RhoCI density.

 Excited State   2:      Singlet-A      4.7175 eV  262.82 nm  f=0.1462  <S**2>=0.000
      31 -> 34         0.34019
      33 -> 34         0.60536

 Excited State   3:      Singlet-A      5.0447 eV  245.77 nm  f=0.1325  <S**2>=0.000
      31 -> 34         0.60097
      33 -> 34        -0.34318

 Excited State   4:      Singlet-A      6.3225 eV  196.10 nm  f=0.0004  <S**2>=0.000
      32 -> 35        -0.39939
      33 -> 36         0.56690

 Excited State   5:      Singlet-A      6.3431 eV  195.46 nm  f=0.0000  <S**2>=0.000
      32 -> 35         0.54004
      32 -> 37         0.11228
      33 -> 36         0.41815

 Excited State   6:      Singlet-A      6.6207 eV  187.27 nm  f=0.0001  <S**2>=0.000
      31 -> 36         0.70272

 Excited State   7:      Singlet-A      6.7113 eV  184.74 nm  f=0.0077  <S**2>=0.000
      29 -> 34         0.26748
      31 -> 35        -0.24556
      32 -> 36         0.33998
      33 -> 35         0.49078

 Excited State   8:      Singlet-A      6.7473 eV  183.75 nm  f=0.0032  <S**2>=0.000
      30 -> 34         0.69301
      32 -> 35         0.10266

 Excited State   9:      Singlet-A      6.8090 eV  182.09 nm  f=0.0662  <S**2>=0.000
      31 -> 35         0.18422
      32 -> 36         0.60428
      33 -> 35        -0.28359

 Excited State  10:      Singlet-A      7.1405 eV  173.64 nm  f=0.1077  <S**2>=0.000
      31 -> 35         0.59047
      33 -> 35         0.28065
      33 -> 37         0.20285

 The electronic state is 1-A.
 Alpha  occ. eigenvalues --  -88.91678 -19.13560 -10.28187 -10.22964 -10.22416
 Alpha  occ. eigenvalues --  -10.21240 -10.20591 -10.19310  -7.97741  -5.94136
 Alpha  occ. eigenvalues --   -5.93765  -5.93471  -1.03558  -0.88908  -0.76908
 Alpha  occ. eigenvalues --   -0.74568  -0.72261  -0.61539  -0.56870  -0.53500
 Alpha  occ. eigenvalues --   -0.49633  -0.44669  -0.44660  -0.43608  -0.40976
 Alpha  occ. eigenvalues --   -0.39386  -0.39106  -0.38297  -0.35409  -0.35181
 Alpha  occ. eigenvalues --   -0.26255  -0.25209  -0.24681
 Alpha virt. eigenvalues --   -0.06205   0.02258   0.03126   0.08145   0.08894
 Alpha virt. eigenvalues --    0.09984   0.11437   0.15303   0.16158   0.16995
 Alpha virt. eigenvalues --    0.17877   0.20570   0.24682   0.26951   0.28195

 Mulliken atomic charges:
              1
     1  C   -0.510845
     2  C    0.379533
     3  O   -0.300881
     4  C   -0.213667
     5  C   -0.153273
     6  C   -0.096598
     7  C   -0.361061
     8  S    0.242887
     9  H    0.186877
    10  H    0.201523
    11  H    0.201522
    12  H    0.122120
    13  H    0.138551
    14  H    0.163311
 Sum of Mulliken atomic charges =   0.00000

 Dipole moment (field-independent basis, Debye):
    X=             -1.4887    Y=              2.3207    Z=              0.0000  Tot=              2.7571
 Quadrupole moment (field-independent basis, Debye-Ang):
   XX=            -44.4447   YY=            -52.4187   ZZ=            -56.2289
   XY=             -3.9839   XZ=              0.0001   YZ=              0.0000

 Summary of Natural Population Analysis:

                                       Natural Population
                Natural  -----------------------------------------------
    Atom  No    Charge         Core      Valence    Rydberg      Total
 -----------------------------------------------------------------------
      C    1   -0.70350      1.99933     4.69765    0.00653     6.70350
      C    2    0.37268      1.99919     3.59612    0.03202     5.62732
      O    3   -0.24530      1.99982     6.22776    0.01773     8.24530
      C    4   -0.34250      1.99885     4.32585    0.01780     6.34250
      C    5   -0.29984      1.99893     4.28551    0.01540     6.29984
      C    6   -0.27179      1.99901     4.25777    0.01501     6.27179
      C    7   -0.46477      1.99908     4.44898    0.01672     6.46477
      S    8    0.43172      9.99902     5.52473    0.04453    15.56828
      H    9    0.25829      0.00000     0.74067    0.00104     0.74171
      H   10    0.26445      0.00000     0.73440    0.00116     0.73555
      H   11    0.26445      0.00000     0.73440    0.00116     0.73555
      H   12    0.23648      0.00000     0.76287    0.00065     0.76352
      H   13    0.24687      0.00000     0.75253    0.00059     0.75313
      H   14    0.25279      0.00000     0.74668    0.00053     0.74721
 =======================================================================
   * Total *    0.00000     23.99321    41.83592    0.17087    66.00000

 Normal termination of Gaussian 09 at Mon Oct  4 10:30:58 2021.
