 Gaussian 09, Revision A.02,

 -----------------------------------
 #p opt b3lyp/6-31G* scf=(xqc,tight)
 -----------------------------------

 --------------------
 CC(=O)c1ccco1_conf_0
 --------------------
 Symbolic Z-matrix:
 Charge =  0 Multiplicity = 1

 SCF Done:  E(RB3LYP) =  -382.668969351     A.U. after   15 cycles
 SCF Done:  E(RB3LYP) =  -382.670185739     A.U. after   13 cycles
 SCF Done:  E(RB3LYP) =  -382.670265743     A.U. after   10 cycles
 SCF Done:  E(RB3LYP) =  -382.670236165     A.U. after   11 cycles
 SCF Done:  E(RB3LYP) =  -382.670277601     A.U. after   10 cycles
 SCF Done:  E(RB3LYP) =  -382.670277985     A.U. after    8 cycles
 SCF Done:  E(RB3LYP) =  -382.670278358     A.U. after    8 cycles
 SCF Done:  E(RB3LYP) =  -382.670278567     A.U. after    7 cycles
 SCF Done:  E(RB3LYP) =  -382.670278913     A.U. after    8 cycles
 SCF Done:  E(RB3LYP) =  -382.670279382     A.U. after    9 cycles
 SCF Done:  E(RB3LYP) =  -382.670279478     A.U. after   15 cycles
 Optimization completed.
    -- Stationary point found.
 Normal termination of Gaussian 09 at Mon Oct  4 08:48:36 2021.

 ----------------------------------------------------------------------
 #p freq b3lyp/6-31G* volume NMR pop=NPA density=current Geom=AllCheck
 Guess=Read
 ----------------------------------------------------------------------

 CC(=O)c1ccco1_conf_0
 --------------------
 Redundant internal coordinates taken from checkpoint file:
 C6H6O2_b617_conf_0.chk
 Charge =  0 Multiplicity = 1

 SCF Done:  E(RB3LYP) =  -382.670279478     A.U. after    1 cycles

  1  C    Isotropic =   164.2211   Anisotropy =    43.4813

  2  C    Isotropic =    16.5908   Anisotropy =   136.9231

  3  O    Isotropic =  -262.0437   Anisotropy =   942.3086

  4  C    Isotropic =    44.4880   Anisotropy =    92.1256

  5  C    Isotropic =    78.2557   Anisotropy =   133.5956

  6  C    Isotropic =    84.3335   Anisotropy =   118.6829

  7  C    Isotropic =    51.3970   Anisotropy =   101.0157

  8  O    Isotropic =    48.7425   Anisotropy =   311.3212

  9  H    Isotropic =    30.4311   Anisotropy =     6.3080

 10  H    Isotropic =    29.8422   Anisotropy =     4.3034

 11  H    Isotropic =    29.8429   Anisotropy =     4.3091

 12  H    Isotropic =    25.5766   Anisotropy =     3.9156

 13  H    Isotropic =    26.0374   Anisotropy =     1.7980

 14  H    Isotropic =    24.8680   Anisotropy =     2.3638

  Exact polarizability:  92.968   3.115  68.426  -0.001   0.001  31.886
 Approx polarizability: 136.413  17.635 124.339  -0.000   0.001  47.615

                     1                      2                      3
                     A                      A                      A
 Frequencies --    61.9770               100.8747               174.1901
 Red. masses --     1.3009                 2.4177                 4.6616
 Frc consts  --     0.0029                 0.0145                 0.0833
 IR Inten    --     1.0541                 0.6648                 0.3242

                     4                      5                      6
                     A                      A                      A
 Frequencies --   190.0626               373.0158               499.3449
 Red. masses --     4.1770                 4.1945                 5.6197
 Frc consts  --     0.0889                 0.3439                 0.8256
 IR Inten    --     3.4780                 0.7696                 3.0360

                     7                      8                      9
                     A                      A                      A
 Frequencies --   549.2587               610.0836               629.6638
 Red. masses --     3.2846                 3.0367                 3.7860
 Frc consts  --     0.5838                 0.6659                 0.8844
 IR Inten    --     4.7717                 8.2385                25.3793

                    10                     11                     12
                     A                      A                      A
 Frequencies --   687.0446               773.5906               835.0896
 Red. masses --     4.2740                 1.2486                 1.2958
 Frc consts  --     1.1886                 0.4403                 0.5324
 IR Inten    --     0.0928                47.4126                 5.9947

                    13                     14                     15
                     A                      A                      A
 Frequencies --   886.1727               899.7037               932.7618
 Red. masses --     1.3286                 6.3229                 4.3271
 Frc consts  --     0.6147                 3.0155                 2.2181
 IR Inten    --     1.1306                 5.4822                20.2134

                    16                     17                     18
                     A                      A                      A
 Frequencies --   964.3390              1050.2218              1052.5433
 Red. masses --     2.1641                 1.3176                 1.7588
 Frc consts  --     1.1857                 0.8563                 1.1480
 IR Inten    --    35.3164                37.9156                 3.0569

                    19                     20                     21
                     A                      A                      A
 Frequencies --  1110.6698              1141.4634              1211.9049
 Red. masses --     1.8197                 3.4535                 2.2211
 Frc consts  --     1.3225                 2.6512                 1.9220
 IR Inten    --     4.1744                36.5199                 7.9763

                    22                     23                     24
                     A                      A                      A
 Frequencies --  1267.8126              1323.3977              1410.1663
 Red. masses --     1.7395                 5.2135                 1.3501
 Frc consts  --     1.6474                 5.3797                 1.5819
 IR Inten    --     1.4090               112.4145                21.6219

                    25                     26                     27
                     A                      A                      A
 Frequencies --  1444.3245              1497.9054              1505.3854
 Red. masses --     2.9194                 1.1092                 1.0474
 Frc consts  --     3.5882                 1.4663                 1.3984
 IR Inten    --    49.1864                12.7015                 9.5853

                    28                     29                     30
                     A                      A                      A
 Frequencies --  1509.8313              1617.6351              1778.3002
 Red. masses --     3.8601                 5.3184                10.8649
 Frc consts  --     5.1845                 8.1995                20.2436
 IR Inten    --    64.2174                13.4273               219.8349

                    31                     32                     33
                     A                      A                      A
 Frequencies --  3054.7813              3115.1465              3170.2863
 Red. masses --     1.0378                 1.1005                 1.1014
 Frc consts  --     5.7059                 6.2920                 6.5220
 IR Inten    --     3.4167                10.4428                 8.6828

                    34                     35                     36
                     A                      A                      A
 Frequencies --  3267.6240              3278.9870              3300.4820
 Red. masses --     1.0909                 1.0972                 1.1048
 Frc consts  --     6.8626                 6.9504                 7.0908
 IR Inten    --     3.0149                 0.6391                 0.8369

 - Thermochemistry -
 -------------------
 Temperature   298.150 Kelvin.  Pressure   1.00000 Atm.
 Atom     1 has atomic number  6 and mass  12.00000

 Molecular mass:   110.03678 amu.
 Principal axes and moments of inertia in atomic units:
                           1         2         3
     Eigenvalues --   369.338551122.000161480.08022
           X            0.99928  -0.03806  -0.00001
           Y            0.03806   0.99928   0.00000
           Z            0.00001  -0.00000   1.00000
 This molecule is an asymmetric top.
 Rotational symmetry number  1.
 Rotational temperatures (Kelvin)      0.23451     0.07720     0.05852
 Rotational constants (GHZ):           4.88641     1.60850     1.21935
 Zero-point vibrational energy     282773.5 (Joules/Mol)
                                   67.58449 (Kcal/Mol)
 Warning -- explicit consideration of   8 degrees of freedom as
           vibrations may cause significant error
 Vibrational temperatures:     89.17   145.14   250.62   273.46   536.69
          (Kelvin)            718.45   790.26   877.77   905.94   988.50
                             1113.02  1201.51  1275.00  1294.47  1342.03
                             1387.47  1511.03  1514.37  1598.00  1642.31
                             1743.66  1824.10  1904.07  2028.91  2078.06
                             2155.15  2165.91  2172.31  2327.41  2558.57
                             4395.14  4482.00  4561.33  4701.38  4717.72
                             4748.65

 Zero-point correction=                           0.107703 (Hartree/Particle)
 Thermal correction to Energy=                    0.114958
 Thermal correction to Enthalpy=                  0.115902
 Thermal correction to Gibbs Free Energy=         0.075443
 Sum of electronic and zero-point Energies=           -382.562577
 Sum of electronic and thermal Energies=              -382.555322
 Sum of electronic and thermal Enthalpies=            -382.554377
 Sum of electronic and thermal Free Energies=         -382.594836

                     E (Thermal)             CV                S
                      KCal/Mol        Cal/Mol-Kelvin    Cal/Mol-Kelvin
 Total                   72.137             25.706             85.153
 Electronic               0.000              0.000              0.000
 Translational            0.889              2.981             40.003
 Rotational               0.889              2.981             27.908
 Vibrational             70.360             19.744             17.242
 Vibration     1          0.597              1.972              4.393
 Vibration     2          0.604              1.948              3.437
 Vibration     3          0.627              1.874              2.390
 Vibration     4          0.633              1.854              2.227
 Vibration     5          0.744              1.528              1.067
 Vibration     6          0.855              1.251              0.660
 Vibration     7          0.905              1.141              0.546
 Vibration     8          0.969              1.010              0.433

 Normal termination of Gaussian 09 at Mon Oct  4 09:15:13 2021.
 Gaussian 09:  AM64L-G09RevA.02 11-Jun-2009

 ----------------------------------------------------------------------
 #p TD(NStates=10, Root=1) b3lyp/6-31G* volume pop=NPA density=current
 Geom=AllCheck Guess=Read
 ----------------------------------------------------------------------

 CC(=O)c1ccco1_conf_0
 --------------------
 Redundant internal coordinates taken from checkpoint file:
 C6H6O2_b617_conf_0.chk
 Charge =  0 Multiplicity = 1

                         Standard orientation:
 ---------------------------------------------------------------------
 Center     Atomic      Atomic             Coordinates (Angstroms)
 Number     Number       Type             X           Y           Z
 ---------------------------------------------------------------------
      1          6           0       -2.289324    1.024820    0.000066
      2          6           0       -1.400030   -0.209467   -0.000063
      3          8           0       -1.859339   -1.340520   -0.000136
      4          6           0        0.050986    0.032903   -0.000022
      5          6           0        0.815973    1.175029   -0.000016
      6          6           0        2.177850    0.757852   -0.000082
      7          6           0        2.144817   -0.608646   -0.000016
      8          8           0        0.873138   -1.063927    0.000199
      9          1           0       -3.332217    0.703042   -0.001212
     10          1           0       -2.099420    1.645772   -0.883478
     11          1           0       -2.101173    1.644071    0.885197
     12          1           0        0.446821    2.191190   -0.000031
     13          1           0        3.059638    1.383003   -0.000172
     14          1           0        2.914325   -1.366446   -0.000005
 ---------------------------------------------------------------------

 SCF Done:  E(RB3LYP) =  -382.670279478     A.U. after    1 cycles

 Excitation energies and oscillator strengths:

 Excited State   1:      Singlet-A      3.7803 eV  327.98 nm  f=0.0001  <S**2>=0.000
      28 -> 30         0.69911
 This state for optimization and/or second-order correction.
 Total Energy, E(TD-HF/TD-KS) =  -382.531356555
 Copying the excited state density for this state as the 1-particle RhoCI density.

 Excited State   2:      Singlet-A      5.0782 eV  244.15 nm  f=0.3085  <S**2>=0.000
      29 -> 30         0.69529

 Excited State   3:      Singlet-A      5.9591 eV  208.06 nm  f=0.0349  <S**2>=0.000
      27 -> 30         0.66054
      29 -> 31         0.20543

 Excited State   4:      Singlet-A      6.7016 eV  185.01 nm  f=0.0007  <S**2>=0.000
      28 -> 31         0.68514
      28 -> 32         0.14126

 Excited State   5:      Singlet-A      7.1478 eV  173.46 nm  f=0.0639  <S**2>=0.000
      26 -> 30         0.20389
      27 -> 30        -0.18083
      27 -> 31        -0.14065
      29 -> 31         0.62117

 Excited State   6:      Singlet-A      7.5643 eV  163.91 nm  f=0.0002  <S**2>=0.000
      25 -> 30         0.70028

 Excited State   7:      Singlet-A      7.9505 eV  155.95 nm  f=0.1066  <S**2>=0.000
      26 -> 30         0.57557
      27 -> 31         0.18784
      29 -> 31        -0.14538
      29 -> 32         0.25802

 Excited State   8:      Singlet-A      8.0567 eV  153.89 nm  f=0.0010  <S**2>=0.000
      24 -> 30        -0.10583
      28 -> 31        -0.15049
      28 -> 32         0.67442

 Excited State   9:      Singlet-A      8.1043 eV  152.98 nm  f=0.0003  <S**2>=0.000
      23 -> 30         0.13860
      24 -> 30         0.67422
      28 -> 32         0.10963

 Excited State  10:      Singlet-A      8.1230 eV  152.63 nm  f=0.0000  <S**2>=0.000
      29 -> 33         0.67912
      29 -> 34        -0.17618

 The electronic state is 1-A.
 Alpha  occ. eigenvalues --  -19.22689 -19.13185 -10.27838 -10.25571 -10.24704
 Alpha  occ. eigenvalues --  -10.20971 -10.20292 -10.19146  -1.12381  -1.03083
 Alpha  occ. eigenvalues --   -0.81678  -0.77869  -0.73356  -0.62359  -0.61016
 Alpha  occ. eigenvalues --   -0.56063  -0.51059  -0.46907  -0.45992  -0.44022
 Alpha  occ. eigenvalues --   -0.43412  -0.42128  -0.40995  -0.39376  -0.37944
 Alpha  occ. eigenvalues --   -0.35645  -0.29367  -0.24820  -0.24277
 Alpha virt. eigenvalues --   -0.05144   0.03455   0.09140   0.09438   0.11999
 Alpha virt. eigenvalues --    0.12452   0.15255   0.15943   0.17394   0.17578
 Alpha virt. eigenvalues --    0.20517   0.23563   0.27923   0.32509   0.36514

 Mulliken atomic charges:
              1
     1  C   -0.509673
     2  C    0.303732
     3  O   -0.298771
     4  C    0.295787
     5  C   -0.227336
     6  C   -0.180967
     7  C    0.077086
     8  O   -0.452116
     9  H    0.184638
    10  H    0.195743
    11  H    0.195741
    12  H    0.127555
    13  H    0.139290
    14  H    0.149290
 Sum of Mulliken atomic charges =  -0.00000

 Dipole moment (field-independent basis, Debye):
    X=             -0.6658    Y=              2.2582    Z=              0.0001  Tot=              2.3543
 Quadrupole moment (field-independent basis, Debye-Ang):
   XX=            -38.2381   YY=            -45.0834   ZZ=            -47.7339
   XY=             -4.5089   XZ=             -0.0008   YZ=             -0.0001

 Summary of Natural Population Analysis:

                                       Natural Population
                Natural  -----------------------------------------------
    Atom  No    Charge         Core      Valence    Rydberg      Total
 -----------------------------------------------------------------------
      C    1   -0.70384      1.99934     4.69825    0.00625     6.70384
      C    2    0.31392      1.99925     3.65481    0.03202     5.68608
      O    3   -0.23676      1.99982     6.21811    0.01883     8.23676
      C    4    0.17982      1.99881     3.79759    0.02378     5.82018
      C    5   -0.33943      1.99899     4.32742    0.01303     6.33943
      C    6   -0.32615      1.99909     4.31433    0.01273     6.32615
      C    7    0.08827      1.99907     3.88894    0.02372     5.91173
      O    8   -0.46000      1.99974     6.44868    0.01158     8.46000
      H    9    0.25679      0.00000     0.74218    0.00103     0.74321
      H   10    0.25971      0.00000     0.73900    0.00129     0.74029
      H   11    0.25969      0.00000     0.73902    0.00129     0.74031
      H   12    0.23951      0.00000     0.76009    0.00040     0.76049
      H   13    0.24665      0.00000     0.75298    0.00038     0.75335
      H   14    0.22183      0.00000     0.77777    0.00040     0.77817
 =======================================================================
   * Total *   -0.00000     15.99410    41.85916    0.14674    58.00000

 Normal termination of Gaussian 09 at Mon Oct  4 10:33:22 2021.
