 Gaussian 09, Revision A.02,

 -----------------------------------
 #p opt b3lyp/6-31G* scf=(xqc,tight)
 -----------------------------------

 -----------------------
 OB(c1ccc(cc1)F)O_conf_0
 -----------------------
 Symbolic Z-matrix:
 Charge =  0 Multiplicity = 1

 SCF Done:  E(RB3LYP) =  -507.454125082     A.U. after   14 cycles
 SCF Done:  E(RB3LYP) =  -507.463446851     A.U. after   13 cycles
 SCF Done:  E(RB3LYP) =  -507.466654715     A.U. after   12 cycles
 SCF Done:  E(RB3LYP) =  -507.473547709     A.U. after   14 cycles
 SCF Done:  E(RB3LYP) =  -507.478407025     A.U. after   12 cycles
 SCF Done:  E(RB3LYP) =  -507.490545931     A.U. after   15 cycles
 SCF Done:  E(RB3LYP) =  -507.493449064     A.U. after   15 cycles
 SCF Done:  E(RB3LYP) =  -507.493725645     A.U. after   15 cycles
 SCF Done:  E(RB3LYP) =  -507.493753986     A.U. after   15 cycles
 SCF Done:  E(RB3LYP) =  -507.493755214     A.U. after   13 cycles
 Optimization completed.
    -- Stationary point found.
 Normal termination of Gaussian 09 at Sun Oct  3 17:36:54 2021.

 ----------------------------------------------------------------------
 #p freq b3lyp/6-31G* volume NMR pop=NPA density=current Geom=AllCheck
 Guess=Read
 ----------------------------------------------------------------------

 OB(c1ccc(cc1)F)O_conf_0
 -----------------------
 Redundant internal coordinates taken from checkpoint file:
 C6H6BFO2_104a_conf_0.chk
 Charge =  0 Multiplicity = 1

 SCF Done:  E(RB3LYP) =  -507.493755214     A.U. after    1 cycles

  1  O    Isotropic =   227.6371   Anisotropy =    58.8027

  2  B    Isotropic =    85.7271   Anisotropy =    17.1262

  3  C    Isotropic =    70.4716   Anisotropy =   187.9249

  4  C    Isotropic =    58.2526   Anisotropy =   177.3974

  5  C    Isotropic =    81.0813   Anisotropy =   135.8778

  6  C    Isotropic =    30.9127   Anisotropy =    99.6601

  7  C    Isotropic =    81.0813   Anisotropy =   135.8778

  8  C    Isotropic =    58.2526   Anisotropy =   177.3974

  9  F    Isotropic =   292.3127   Anisotropy =   113.5997

 10  O    Isotropic =   227.6371   Anisotropy =    58.8026

 11  H    Isotropic =    29.4584   Anisotropy =    13.0492

 12  H    Isotropic =    24.1867   Anisotropy =     8.2609

 13  H    Isotropic =    25.4570   Anisotropy =     4.8238

 14  H    Isotropic =    25.4570   Anisotropy =     4.8238

 15  H    Isotropic =    24.1867   Anisotropy =     8.2609

 16  H    Isotropic =    29.4584   Anisotropy =    13.0492

  Exact polarizability: 111.357   0.000  84.025  -0.000   0.001  31.259
 Approx polarizability: 168.522   0.000 141.800  -0.000  -0.000  47.151

                     1                      2                      3
                     A                      A                      A
 Frequencies --    57.9592               101.7286               149.4480
 Red. masses --     6.3622                 6.9131                 6.1370
 Frc consts  --     0.0126                 0.0422                 0.0808
 IR Inten    --     0.0000                 1.9302                 2.2247

                     4                      5                      6
                     A                      A                      A
 Frequencies --   283.0333               311.0375               376.8478
 Red. masses --     5.6265                 8.1625                 8.9536
 Frc consts  --     0.2656                 0.4653                 0.7492
 IR Inten    --    11.6854                 1.6301                 8.5872

                     7                      8                      9
                     A                      A                      A
 Frequencies --   388.8312               428.2224               455.8922
 Red. masses --     1.1515                 2.4308                 5.3004
 Frc consts  --     0.1026                 0.2626                 0.6491
 IR Inten    --     0.0000                 0.0000                 0.5867

                    10                     11                     12
                     A                      A                      A
 Frequencies --   491.5104               517.4171               550.3775
 Red. masses --     2.0261                 4.2018                 1.5228
 Frc consts  --     0.2884                 0.6628                 0.2718
 IR Inten    --    86.9372                61.2977               108.6064

                    13                     14                     15
                     A                      A                      A
 Frequencies --   642.4478               646.6221               674.1698
 Red. masses --     5.1398                 7.2402                 4.7094
 Frc consts  --     1.2499                 1.7836                 1.2611
 IR Inten    --    82.2917                 0.3376                 0.2450

                    16                     17                     18
                     A                      A                      A
 Frequencies --   738.0325               839.3332               843.9449
 Red. masses --     4.9401                 1.2419                 6.7244
 Frc consts  --     1.5854                 0.5155                 2.8218
 IR Inten    --     8.6018                 0.0000                13.4940

                    19                     20                     21
                     A                      A                      A
 Frequencies --   849.4497               947.3213               973.9953
 Red. masses --     1.5783                 1.1016                 1.2777
 Frc consts  --     0.6710                 0.5825                 0.7142
 IR Inten    --    44.2934               181.4036                 0.1526

                    22                     23                     24
                     A                      A                      A
 Frequencies --   982.4656              1013.5107              1040.5725
 Red. masses --     1.3365                 3.1166                 2.4252
 Frc consts  --     0.7601                 1.8862                 1.5472
 IR Inten    --     0.0000               177.4821                 5.9208

                    25                     26                     27
                     A                      A                      A
 Frequencies --  1123.7407              1133.9751              1195.3835
 Red. masses --     1.3311                 2.1918                 1.1868
 Frc consts  --     0.9903                 1.6606                 0.9992
 IR Inten    --     7.9648                19.7800                26.1376

                    28                     29                     30
                     A                      A                      A
 Frequencies --  1282.0999              1329.5040              1338.1476
 Red. masses --     3.8799                 2.3190                 2.2225
 Frc consts  --     3.7576                 2.4151                 2.3448
 IR Inten    --    99.6159                10.2135                17.2105

                    31                     32                     33
                     A                      A                      A
 Frequencies --  1394.0367              1399.0757              1449.8391
 Red. masses --     3.3841                 7.3481                 3.5122
 Frc consts  --     3.8747                 8.4744                 4.3498
 IR Inten    --   313.5410               209.4295                81.0441

                    34                     35                     36
                     A                      A                      A
 Frequencies --  1564.7888              1637.5409              1663.1651
 Red. masses --     2.7905                 7.0043                 5.8476
 Frc consts  --     4.0258                11.0662                 9.5301
 IR Inten    --    15.9307                25.0929               130.3978

                    37                     38                     39
                     A                      A                      A
 Frequencies --  3203.4775              3204.1692              3221.1384
 Red. masses --     1.0880                 1.0880                 1.0943
 Frc consts  --     6.5786                 6.5813                 6.6894
 IR Inten    --     5.3807                 4.5069                12.4182

                    40                     41                     42
                     A                      A                      A
 Frequencies --  3222.2152              3784.0208              3788.0387
 Red. masses --     1.0948                 1.0671                 1.0650
 Frc consts  --     6.6972                 9.0027                 9.0041
 IR Inten    --     4.1494                 6.4909                45.4754

 - Thermochemistry -
 -------------------
 Temperature   298.150 Kelvin.  Pressure   1.00000 Atm.
 Atom     1 has atomic number  8 and mass  15.99491

 Molecular mass:   140.04449 amu.
 Principal axes and moments of inertia in atomic units:
                           1         2         3
     Eigenvalues --   495.589012489.640402985.22941
           X            1.00000   0.00000   0.00000
           Y           -0.00000   1.00000   0.00001
           Z           -0.00000  -0.00001   1.00000
 This molecule is an asymmetric top.
 Rotational symmetry number  1.
 Warning -- assumption of classical behavior for rotation
           may cause significant error
 Rotational temperatures (Kelvin)      0.17477     0.03479     0.02901
 Rotational constants (GHZ):           3.64161     0.72490     0.60456
 Zero-point vibrational energy     306474.5 (Joules/Mol)
                                   73.24915 (Kcal/Mol)
 Warning -- explicit consideration of  12 degrees of freedom as
           vibrations may cause significant error
 Vibrational temperatures:     83.39   146.36   215.02   407.22   447.51
          (Kelvin)            542.20   559.44   616.12   655.93   707.17
                              744.45   791.87   924.34   930.34   969.98
                             1061.86  1207.61  1214.25  1222.17  1362.98
                             1401.36  1413.55  1458.21  1497.15  1616.81
                             1631.54  1719.89  1844.65  1912.86  1925.29
                             2005.71  2012.96  2085.99  2251.38  2356.05
                             2392.92  4609.08  4610.08  4634.49  4636.04
                             5444.36  5450.14

 Zero-point correction=                           0.116730 (Hartree/Particle)
 Thermal correction to Energy=                    0.125441
 Thermal correction to Enthalpy=                  0.126386
 Thermal correction to Gibbs Free Energy=         0.082616
 Sum of electronic and zero-point Energies=           -507.377025
 Sum of electronic and thermal Energies=              -507.368314
 Sum of electronic and thermal Enthalpies=            -507.367370
 Sum of electronic and thermal Free Energies=         -507.411139

                     E (Thermal)             CV                S
                      KCal/Mol        Cal/Mol-Kelvin    Cal/Mol-Kelvin
 Total                   78.716             33.324             92.120
 Electronic               0.000              0.000              0.000
 Translational            0.889              2.981             40.722
 Rotational               0.889              2.981             29.689
 Vibrational             76.938             27.363             21.709
 Vibration     1          0.596              1.974              4.526
 Vibration     2          0.604              1.948              3.421
 Vibration     3          0.618              1.903              2.679
 Vibration     4          0.682              1.705              1.515
 Vibration     5          0.700              1.653              1.357
 Vibration     6          0.747              1.519              1.052
 Vibration     7          0.757              1.494              1.005
 Vibration     8          0.790              1.409              0.864
 Vibration     9          0.814              1.348              0.778
 Vibration    10          0.847              1.269              0.680
 Vibration    11          0.872              1.211              0.616
 Vibration    12          0.906              1.139              0.543

 Optimization completed.
    -- Stationary point found.
 Normal termination of Gaussian 09 at Sun Oct  3 18:26:30 2021.
 Gaussian 09:  AM64L-G09RevA.02 11-Jun-2009

 ----------------------------------------------------------------------
 #p TD(NStates=10, Root=1) b3lyp/6-31G* volume pop=NPA density=current
 Geom=AllCheck Guess=Read
 ----------------------------------------------------------------------

 OB(c1ccc(cc1)F)O_conf_0
 -----------------------
 Redundant internal coordinates taken from checkpoint file:
 C6H6BFO2_104a_conf_0.chk
 Charge =  0 Multiplicity = 1

                         Standard orientation:
 ---------------------------------------------------------------------
 Center     Atomic      Atomic             Coordinates (Angstroms)
 Number     Number       Type             X           Y           Z
 ---------------------------------------------------------------------
      1          8           0        2.825600   -1.213474    0.000060
      2          5           0        2.177581   -0.000000   -0.000027
      3          6           0        0.617445    0.000000   -0.000014
      4          6           0       -0.108899    1.204810   -0.000069
      5          6           0       -1.502448    1.217577    0.000066
      6          6           0       -2.174407    0.000000    0.000003
      7          6           0       -1.502448   -1.217577   -0.000067
      8          6           0       -0.108899   -1.204810    0.000051
      9          9           0       -3.524711   -0.000000    0.000011
     10          8           0        2.825600    1.213474   -0.000038
     11          1           0        3.791342   -1.157895   -0.000066
     12          1           0        0.430065    2.147921   -0.000072
     13          1           0       -2.069992    2.142707    0.000204
     14          1           0       -2.069992   -2.142707   -0.000199
     15          1           0        0.430065   -2.147921    0.000046
     16          1           0        3.791342    1.157896    0.000137
 ---------------------------------------------------------------------

 SCF Done:  E(RB3LYP) =  -507.493755214     A.U. after    1 cycles

 Excitation energies and oscillator strengths:

 Excited State   1:      Singlet-A      5.2474 eV  236.28 nm  f=0.0000  <S**2>=0.000
      35 -> 37         0.51837
      36 -> 38         0.47885
 This state for optimization and/or second-order correction.
 Total Energy, E(TD-HF/TD-KS) =  -507.300916354
 Copying the excited state density for this state as the 1-particle RhoCI density.

 Excited State   2:      Singlet-A      5.7436 eV  215.86 nm  f=0.1908  <S**2>=0.000
      35 -> 38        -0.25744
      36 -> 37         0.65556

 Excited State   3:      Singlet-A      6.6895 eV  185.34 nm  f=0.2842  <S**2>=0.000
      35 -> 37        -0.47204
      35 -> 40        -0.13370
      36 -> 38         0.50277

 Excited State   4:      Singlet-A      6.7481 eV  183.73 nm  f=0.0000  <S**2>=0.000
      36 -> 39         0.70340

 Excited State   5:      Singlet-A      6.9680 eV  177.93 nm  f=0.6070  <S**2>=0.000
      35 -> 38         0.64442
      36 -> 37         0.24551
      36 -> 40         0.12270

 Excited State   6:      Singlet-A      7.1937 eV  172.35 nm  f=0.0000  <S**2>=0.000
      35 -> 39         0.70445

 Excited State   7:      Singlet-A      7.2689 eV  170.57 nm  f=0.0000  <S**2>=0.000
      33 -> 37         0.69482

 Excited State   8:      Singlet-A      7.4091 eV  167.34 nm  f=0.0040  <S**2>=0.000
      32 -> 37         0.70372

 Excited State   9:      Singlet-A      7.7035 eV  160.95 nm  f=0.0386  <S**2>=0.000
      33 -> 38        -0.19994
      34 -> 37         0.66614

 Excited State  10:      Singlet-A      7.7035 eV  160.95 nm  f=0.0053  <S**2>=0.000
      30 -> 38         0.15447
      33 -> 38         0.65585
      34 -> 37         0.20306

 The electronic state is 1-A.
 Alpha  occ. eigenvalues --  -24.69797 -19.16570 -19.16569 -10.26693 -10.19037
 Alpha  occ. eigenvalues --  -10.19036 -10.18758 -10.18757 -10.16595  -6.78744
 Alpha  occ. eigenvalues --   -1.20934  -1.04140  -1.00751  -0.84938  -0.74665
 Alpha  occ. eigenvalues --   -0.73669  -0.61435  -0.60939  -0.56427  -0.54648
 Alpha  occ. eigenvalues --   -0.53085  -0.47006  -0.46628  -0.45106  -0.44122
 Alpha  occ. eigenvalues --   -0.42156  -0.41369  -0.39117  -0.38371  -0.34663
 Alpha  occ. eigenvalues --   -0.34547  -0.33274  -0.32989  -0.32357  -0.25058
 Alpha  occ. eigenvalues --   -0.23686
 Alpha virt. eigenvalues --   -0.01584   0.00072   0.03681   0.09626   0.10073
 Alpha virt. eigenvalues --    0.10457   0.14935   0.17841   0.18722   0.18952
 Alpha virt. eigenvalues --    0.20138   0.21733   0.26555   0.29055   0.32377

 Mulliken atomic charges:
              1
     1  O   -0.566004
     2  B    0.330988
     3  C    0.097368
     4  C   -0.204217
     5  C   -0.178813
     6  C    0.359306
     7  C   -0.178813
     8  C   -0.204217
     9  F   -0.284437
    10  O   -0.566004
    11  H    0.388770
    12  H    0.157637
    13  H    0.151015
    14  H    0.151015
    15  H    0.157637
    16  H    0.388771
 Sum of Mulliken atomic charges =  -0.00000

 Dipole moment (field-independent basis, Debye):
    X=              2.9401    Y=              0.0000    Z=              0.0000  Tot=              2.9401
 Quadrupole moment (field-independent basis, Debye-Ang):
   XX=            -41.4348   YY=            -53.7937   ZZ=            -57.7034
   XY=              0.0000   XZ=              0.0003   YZ=              0.0012

 Summary of Natural Population Analysis:

                                       Natural Population
                Natural  -----------------------------------------------
    Atom  No    Charge         Core      Valence    Rydberg      Total
 -----------------------------------------------------------------------
      O    1   -0.89174      1.99975     6.88231    0.00969     8.89174
      B    2    1.06400      1.99923     1.91066    0.02611     3.93600
      C    3   -0.38125      1.99899     4.36302    0.01924     6.38125
      C    4   -0.17913      1.99915     4.16259    0.01739     6.17913
      C    5   -0.27538      1.99903     4.25785    0.01850     6.27538
      C    6    0.39345      1.99851     3.57982    0.02822     5.60655
      C    7   -0.27538      1.99903     4.25785    0.01850     6.27538
      C    8   -0.17913      1.99915     4.16259    0.01739     6.17913
      F    9   -0.31880      1.99994     7.31330    0.00556     9.31880
      O   10   -0.89174      1.99975     6.88231    0.00969     8.89174
      H   11    0.48132      0.00000     0.51662    0.00205     0.51868
      H   12    0.24253      0.00000     0.75625    0.00122     0.75747
      H   13    0.24370      0.00000     0.75508    0.00122     0.75630
      H   14    0.24370      0.00000     0.75508    0.00122     0.75630
      H   15    0.24253      0.00000     0.75625    0.00122     0.75747
      H   16    0.48132      0.00000     0.51662    0.00205     0.51868
 =======================================================================
   * Total *   -0.00000     19.99255    51.82818    0.17927    72.00000

 Normal termination of Gaussian 09 at Sun Oct  3 21:05:28 2021.
