 Gaussian 09, Revision A.02,

 -----------------------------------
 #p opt b3lyp/6-31G* scf=(xqc,tight)
 -----------------------------------

 ----------------------
 COC(=O)c1ncoc1C_conf_0
 ----------------------
 Symbolic Z-matrix:
 Charge =  0 Multiplicity = 1

 SCF Done:  E(RB3LYP) =  -513.269561589     A.U. after   15 cycles
 SCF Done:  E(RB3LYP) =  -513.271778802     A.U. after   12 cycles
 SCF Done:  E(RB3LYP) =  -513.272068166     A.U. after   11 cycles
 SCF Done:  E(RB3LYP) =  -513.272089818     A.U. after    9 cycles
 SCF Done:  E(RB3LYP) =  -513.272083410     A.U. after   11 cycles
 SCF Done:  E(RB3LYP) =  -513.272099730     A.U. after    9 cycles
 SCF Done:  E(RB3LYP) =  -513.272106492     A.U. after    9 cycles
 SCF Done:  E(RB3LYP) =  -513.272129796     A.U. after   11 cycles
 SCF Done:  E(RB3LYP) =  -513.272129668     A.U. after   11 cycles
 SCF Done:  E(RB3LYP) =  -513.272137418     A.U. after   11 cycles
 SCF Done:  E(RB3LYP) =  -513.273066567     A.U. after   12 cycles
 SCF Done:  E(RB3LYP) =  -513.273204152     A.U. after   16 cycles
 SCF Done:  E(RB3LYP) =  -513.273207400     A.U. after   11 cycles
 SCF Done:  E(RB3LYP) =  -513.273191963     A.U. after   16 cycles
 SCF Done:  E(RB3LYP) =  -513.273314882     A.U. after   16 cycles
 SCF Done:  E(RB3LYP) =  -513.273326257     A.U. after   10 cycles
 SCF Done:  E(RB3LYP) =  -513.273329629     A.U. after    9 cycles
 SCF Done:  E(RB3LYP) =  -513.273330036     A.U. after    8 cycles
 Optimization completed.
    -- Stationary point found.
 Normal termination of Gaussian 09 at Mon Oct  4 14:24:25 2021.

 ----------------------------------------------------------------------
 #p freq b3lyp/6-31G* volume NMR pop=NPA density=current Geom=AllCheck
 Guess=Read
 ----------------------------------------------------------------------

 COC(=O)c1ncoc1C_conf_0
 ----------------------
 Redundant internal coordinates taken from checkpoint file:
 C6H7NO3_7848_conf_0.chk
 Charge =  0 Multiplicity = 1

 SCF Done:  E(RB3LYP) =  -513.273330036     A.U. after    1 cycles

  1  C    Isotropic =   139.0918   Anisotropy =    61.8889

  2  O    Isotropic =   155.1442   Anisotropy =   125.3452

  3  C    Isotropic =    34.8474   Anisotropy =    79.2106

  4  O    Isotropic =   -35.9777   Anisotropy =   542.4673

  5  C    Isotropic =    65.0951   Anisotropy =    84.4630

  6  N    Isotropic =    -4.4557   Anisotropy =   354.4898

  7  C    Isotropic =    49.8948   Anisotropy =    73.1001

  8  O    Isotropic =    14.6705   Anisotropy =   260.8266

  9  C    Isotropic =    36.9818   Anisotropy =   113.1190

 10  C    Isotropic =   177.9922   Anisotropy =    19.8273

 11  H    Isotropic =    28.6370   Anisotropy =     7.0890

 12  H    Isotropic =    28.3578   Anisotropy =     8.0812

 13  H    Isotropic =    28.3593   Anisotropy =     8.0840

 14  H    Isotropic =    24.9640   Anisotropy =     4.1449

 15  H    Isotropic =    30.1014   Anisotropy =     8.7538

 16  H    Isotropic =    28.7110   Anisotropy =     8.0237

 17  H    Isotropic =    30.1012   Anisotropy =     8.7527

  Exact polarizability:  98.760   1.856  82.418  -0.003  -0.001  42.411
 Approx polarizability: 139.334   4.293 131.268  -0.011  -0.013  62.623

                     1                      2                      3
                     A                      A                      A
 Frequencies --    57.0450               112.7421               117.4940
 Red. masses --     4.8308                 1.5486                 1.0731
 Frc consts  --     0.0093                 0.0116                 0.0087
 IR Inten    --     4.2609                 1.6447                 0.1198

                     4                      5                      6
                     A                      A                      A
 Frequencies --   134.9155               153.3805               219.5776
 Red. masses --     1.8046                 4.0584                 5.6015
 Frc consts  --     0.0194                 0.0563                 0.1591
 IR Inten    --     0.5967                 3.0123                 1.6257

                     7                      8                      9
                     A                      A                      A
 Frequencies --   277.9131               279.3293               339.5237
 Red. masses --     3.9613                 3.6059                 4.1829
 Frc consts  --     0.1803                 0.1658                 0.2841
 IR Inten    --     0.0137                 7.7281                13.8965

                    10                     11                     12
                     A                      A                      A
 Frequencies --   422.9186               500.5006               645.5331
 Red. masses --     6.9460                 5.5328                 3.7093
 Frc consts  --     0.7320                 0.8166                 0.9107
 IR Inten    --     1.1607                 6.5693                 2.5618

                    13                     14                     15
                     A                      A                      A
 Frequencies --   667.5817               690.2065               785.0525
 Red. masses --     5.8022                 5.3358                10.3144
 Frc consts  --     1.5235                 1.4976                 3.7453
 IR Inten    --    23.6661                 6.7629                 7.9141

                    16                     17                     18
                     A                      A                      A
 Frequencies --   824.7033               827.2319               949.2987
 Red. masses --     1.4617                 5.5407                11.2426
 Frc consts  --     0.5857                 2.2339                 5.9693
 IR Inten    --     6.9001                15.8792                 1.7739

                    19                     20                     21
                     A                      A                      A
 Frequencies --   974.1729              1005.5681              1083.5014
 Red. masses --     2.7033                 3.0081                 1.4892
 Frc consts  --     1.5115                 1.7921                 1.0301
 IR Inten    --    18.2349                 4.8718                 2.0296

                    22                     23                     24
                     A                      A                      A
 Frequencies --  1103.7001              1141.3789              1184.4862
 Red. masses --     8.2803                 3.2023                 1.2739
 Frc consts  --     5.9429                 2.4580                 1.0531
 IR Inten    --    92.2900               152.9703                 0.8793

                    25                     26                     27
                     A                      A                      A
 Frequencies --  1201.7616              1234.1273              1258.5269
 Red. masses --     2.1326                 2.8756                 2.2924
 Frc consts  --     1.8147                 2.5805                 2.1393
 IR Inten    --    40.5976               152.1802                34.4810

                    28                     29                     30
                     A                      A                      A
 Frequencies --  1349.6383              1390.5495              1438.1308
 Red. masses --     2.3165                 4.1885                 1.3890
 Frc consts  --     2.4861                 4.7718                 1.6926
 IR Inten    --    80.7405               153.1237                17.4731

                    31                     32                     33
                     A                      A                      A
 Frequencies --  1493.1320              1505.2415              1512.4657
 Red. masses --     1.2551                 1.1108                 1.0485
 Frc consts  --     1.6486                 1.4829                 1.4131
 IR Inten    --     8.5066                29.3563                 6.0116

                    34                     35                     36
                     A                      A                      A
 Frequencies --  1516.1787              1523.5839              1584.1681
 Red. masses --     1.0441                 1.0500                 6.5511
 Frc consts  --     1.4141                 1.4361                 9.6865
 IR Inten    --     7.9363                 9.3317                38.9740

                    37                     38                     39
                     A                      A                      A
 Frequencies --  1648.5393              1787.7038              3052.9627
 Red. masses --     7.7860                11.3352                 1.0399
 Frc consts  --    12.4671                21.3437                 5.7104
 IR Inten    --   107.8526               192.5938                17.9131

                    40                     41                     42
                     A                      A                      A
 Frequencies --  3074.2244              3104.1609              3147.4679
 Red. masses --     1.0299                 1.1011                 1.1074
 Frc consts  --     5.7345                 6.2515                 6.4637
 IR Inten    --    33.5341                10.1977                22.4304

                    43                     44                     45
                     A                      A                      A
 Frequencies --  3183.3575              3183.6982              3299.6905
 Red. masses --     1.0981                 1.1067                 1.0989
 Frc consts  --     6.5565                 6.6091                 7.0493
 IR Inten    --     0.2325                17.3640                 0.3220

 - Thermochemistry -
 -------------------
 Temperature   298.150 Kelvin.  Pressure   1.00000 Atm.
 Atom     1 has atomic number  6 and mass  12.00000

 Molecular mass:   141.04259 amu.
 Principal axes and moments of inertia in atomic units:
                           1         2         3
     Eigenvalues --   678.101221852.936132508.37724
           X            0.99967   0.02578   0.00001
           Y           -0.02578   0.99967   0.00003
           Z           -0.00000  -0.00003   1.00000
 This molecule is an asymmetric top.
 Rotational symmetry number  1.
 Warning -- assumption of classical behavior for rotation
           may cause significant error
 Rotational temperatures (Kelvin)      0.12773     0.04674     0.03453
 Rotational constants (GHZ):           2.66146     0.97399     0.71949
 Zero-point vibrational energy     340858.3 (Joules/Mol)
                                   81.46710 (Kcal/Mol)
 Warning -- explicit consideration of  11 degrees of freedom as
           vibrations may cause significant error
 Vibrational temperatures:     82.07   162.21   169.05   194.11   220.68
          (Kelvin)            315.92   399.85   401.89   488.50   608.48
                              720.11   928.78   960.50   993.05  1129.51
                             1186.56  1190.20  1365.83  1401.62  1446.79
                             1558.91  1587.98  1642.19  1704.21  1729.06
                             1775.63  1810.74  1941.83  2000.69  2069.15
                             2148.28  2165.70  2176.10  2181.44  2192.09
                             2279.26  2371.88  2572.10  4392.53  4423.12
                             4466.19  4528.50  4580.14  4580.63  4747.51

 Zero-point correction=                           0.129826 (Hartree/Particle)
 Thermal correction to Energy=                    0.139424
 Thermal correction to Enthalpy=                  0.140368
 Thermal correction to Gibbs Free Energy=         0.094322
 Sum of electronic and zero-point Energies=           -513.143504
 Sum of electronic and thermal Energies=              -513.133906
 Sum of electronic and thermal Enthalpies=            -513.132962
 Sum of electronic and thermal Free Energies=         -513.179008

                     E (Thermal)             CV                S
                      KCal/Mol        Cal/Mol-Kelvin    Cal/Mol-Kelvin
 Total                   87.490             33.322             96.913
 Electronic               0.000              0.000              0.000
 Translational            0.889              2.981             40.743
 Rotational               0.889              2.981             29.534
 Vibrational             85.713             27.360             26.635
 Vibration     1          0.596              1.975              4.557
 Vibration     2          0.607              1.939              3.221
 Vibration     3          0.608              1.935              3.141
 Vibration     4          0.613              1.918              2.875
 Vibration     5          0.619              1.899              2.630
 Vibration     6          0.647              1.811              1.963
 Vibration     7          0.679              1.714              1.546
 Vibration     8          0.680              1.712              1.538
 Vibration     9          0.719              1.597              1.214
 Vibration    10          0.785              1.420              0.882
 Vibration    11          0.856              1.249              0.657

 Optimization completed.
    -- Stationary point found.
 Normal termination of Gaussian 09 at Mon Oct  4 15:08:33 2021.
 Gaussian 09:  AM64L-G09RevA.02 11-Jun-2009

 ----------------------------------------------------------------------
 #p TD(NStates=10, Root=1) b3lyp/6-31G* volume pop=NPA density=current
 Geom=AllCheck Guess=Read
 ----------------------------------------------------------------------

 COC(=O)c1ncoc1C_conf_0
 ----------------------
 Redundant internal coordinates taken from checkpoint file:
 C6H7NO3_7848_conf_0.chk
 Charge =  0 Multiplicity = 1

                         Standard orientation:
 ---------------------------------------------------------------------
 Center     Atomic      Atomic             Coordinates (Angstroms)
 Number     Number       Type             X           Y           Z
 ---------------------------------------------------------------------
      1          6           0       -3.366057   -0.278832    0.000037
      2          8           0       -1.997115   -0.711747    0.000444
      3          6           0       -1.085946    0.277428   -0.000071
      4          8           0       -1.373448    1.462491   -0.000703
      5          6           0        0.296237   -0.236133    0.000102
      6          7           0        0.630165   -1.591942    0.000205
      7          6           0        1.917788   -1.595092   -0.000199
      8          8           0        2.491699   -0.355685   -0.000289
      9          6           0        1.440038    0.519302   -0.000130
     10          6           0        1.744269    1.971827    0.000485
     11          1           0       -3.958289   -1.194105   -0.000135
     12          1           0       -3.580566    0.319543   -0.889595
     13          1           0       -3.581087    0.319460    0.889610
     14          1           0        2.592827   -2.438494   -0.000384
     15          1           0        2.330668    2.247478    0.885342
     16          1           0        0.807445    2.529964    0.000785
     17          1           0        2.330782    2.248288   -0.884008
 ---------------------------------------------------------------------

 SCF Done:  E(RB3LYP) =  -513.273330036     A.U. after    1 cycles

 Excitation energies and oscillator strengths:

 Excited State   1:      Singlet-A      5.1039 eV  242.92 nm  f=0.0002  <S**2>=0.000
      36 -> 38         0.68400
      36 -> 39        -0.13838
 This state for optimization and/or second-order correction.
 Total Energy, E(TD-HF/TD-KS) =  -513.085766880
 Copying the excited state density for this state as the 1-particle RhoCI density.

 Excited State   2:      Singlet-A      5.6433 eV  219.70 nm  f=0.2103  <S**2>=0.000
      37 -> 38         0.69126

 Excited State   3:      Singlet-A      6.0258 eV  205.75 nm  f=0.0000  <S**2>=0.000
      35 -> 38         0.68938

 Excited State   4:      Singlet-A      6.3441 eV  195.43 nm  f=0.1029  <S**2>=0.000
      33 -> 38         0.18577
      37 -> 38         0.10632
      37 -> 39         0.66300

 Excited State   5:      Singlet-A      6.6101 eV  187.57 nm  f=0.0047  <S**2>=0.000
      35 -> 38         0.13163
      35 -> 39        -0.38339
      36 -> 39         0.56979

 Excited State   6:      Singlet-A      6.7410 eV  183.93 nm  f=0.0789  <S**2>=0.000
      34 -> 38         0.68688

 Excited State   7:      Singlet-A      6.8324 eV  181.46 nm  f=0.0030  <S**2>=0.000
      35 -> 39         0.58450
      36 -> 38         0.10826
      36 -> 39         0.37642

 Excited State   8:      Singlet-A      7.2974 eV  169.90 nm  f=0.2480  <S**2>=0.000
      33 -> 38         0.64513
      34 -> 39         0.17731
      37 -> 39        -0.17761

 Excited State   9:      Singlet-A      7.6157 eV  162.80 nm  f=0.0001  <S**2>=0.000
      32 -> 38         0.69046
      32 -> 39        -0.11103

 Excited State  10:      Singlet-A      7.6238 eV  162.63 nm  f=0.0271  <S**2>=0.000
      33 -> 38        -0.14905
      34 -> 39         0.67527

 The electronic state is 1-A.
 Alpha  occ. eigenvalues --  -19.23774 -19.19080 -19.13404 -14.34151 -10.31891
 Alpha  occ. eigenvalues --  -10.28123 -10.26987 -10.23843 -10.22780 -10.20096
 Alpha  occ. eigenvalues --   -1.14273  -1.10130  -1.01129  -0.93156  -0.80828
 Alpha  occ. eigenvalues --   -0.74478  -0.70842  -0.65178  -0.60149  -0.56701
 Alpha  occ. eigenvalues --   -0.53723  -0.49300  -0.48213  -0.47531  -0.46618
 Alpha  occ. eigenvalues --   -0.44909  -0.42476  -0.42002  -0.40775  -0.39795
 Alpha  occ. eigenvalues --   -0.39437  -0.35559  -0.32608  -0.29986  -0.29833
 Alpha  occ. eigenvalues --   -0.27457  -0.25095
 Alpha virt. eigenvalues --   -0.03266   0.00502   0.10843   0.11304   0.11823
 Alpha virt. eigenvalues --    0.11919   0.13002   0.15101   0.15936   0.17082
 Alpha virt. eigenvalues --    0.17955   0.18576   0.19877   0.23306   0.26988

 Mulliken atomic charges:
              1
     1  C   -0.236254
     2  O   -0.411379
     3  C    0.540918
     4  O   -0.321938
     5  C    0.120415
     6  N   -0.456741
     7  C    0.253984
     8  O   -0.436266
     9  C    0.274415
    10  C   -0.528011
    11  H    0.186908
    12  H    0.173275
    13  H    0.173262
    14  H    0.167737
    15  H    0.164276
    16  H    0.171111
    17  H    0.164290
 Sum of Mulliken atomic charges =  -0.00000

 Dipole moment (field-independent basis, Debye):
    X=             -2.0263    Y=              0.9766    Z=             -0.0001  Tot=              2.2493
 Quadrupole moment (field-independent basis, Debye-Ang):
   XX=            -44.1671   YY=            -57.7229   ZZ=            -57.2935
   XY=             -1.2742   XZ=              0.0004   YZ=              0.0033

 Summary of Natural Population Analysis:

                                       Natural Population
                Natural  -----------------------------------------------
    Atom  No    Charge         Core      Valence    Rydberg      Total
 -----------------------------------------------------------------------
      C    1   -0.32718      1.99943     4.31363    0.01413     6.32718
      O    2   -0.46111      1.99977     6.45001    0.01133     8.46111
      C    3    0.61015      1.99932     3.35307    0.03746     5.38985
      O    4   -0.26967      1.99981     6.25155    0.01830     8.26967
      C    5   -0.07120      1.99875     4.04934    0.02311     6.07120
      N    6   -0.46532      1.99939     5.44399    0.02194     7.46532
      C    7    0.33875      1.99936     3.63014    0.03174     5.66125
      O    8   -0.47919      1.99976     6.46797    0.01146     8.47919
      C    9    0.22892      1.99889     3.74880    0.02339     5.77108
      C   10   -0.71592      1.99936     4.70897    0.00759     6.71592
      H   11    0.23495      0.00000     0.76465    0.00039     0.76505
      H   12    0.21386      0.00000     0.78467    0.00147     0.78614
      H   13    0.21385      0.00000     0.78468    0.00147     0.78615
      H   14    0.21770      0.00000     0.78179    0.00051     0.78230
      H   15    0.24088      0.00000     0.75679    0.00233     0.75912
      H   16    0.24960      0.00000     0.75023    0.00017     0.75040
      H   17    0.24090      0.00000     0.75678    0.00232     0.75910
 =======================================================================
   * Total *   -0.00000     19.99384    53.79704    0.20913    74.00000

 Normal termination of Gaussian 09 at Mon Oct  4 19:15:14 2021.
