 Gaussian 09, Revision A.02,

 -----------------------------------
 #p opt b3lyp/6-31G* scf=(xqc,tight)
 -----------------------------------

 ----------------
 Nc1ccccc1_conf_0
 ----------------
 Symbolic Z-matrix:
 Charge =  0 Multiplicity = 1

 SCF Done:  E(RB3LYP) =  -287.600424453     A.U. after   14 cycles
 SCF Done:  E(RB3LYP) =  -287.601718101     A.U. after   15 cycles
 SCF Done:  E(RB3LYP) =  -287.601757473     A.U. after    9 cycles
 SCF Done:  E(RB3LYP) =  -287.601760023     A.U. after    8 cycles
 Optimization completed.
    -- Stationary point found.
 Normal termination of Gaussian 09 at Mon Oct  4 21:31:59 2021.

 ----------------------------------------------------------------------
 #p freq b3lyp/6-31G* volume NMR pop=NPA density=current Geom=AllCheck
 Guess=Read
 ----------------------------------------------------------------------

 Nc1ccccc1_conf_0
 ----------------
 Redundant internal coordinates taken from checkpoint file:
 C6H7N_f73f_conf_0.chk
 Charge =  0 Multiplicity = 1

 SCF Done:  E(RB3LYP) =  -287.601760023     A.U. after    1 cycles

  1  N    Isotropic =   194.1367   Anisotropy =    75.5137

  2  C    Isotropic =    51.5321   Anisotropy =   159.3245

  3  C    Isotropic =    82.9072   Anisotropy =   128.1821

  4  C    Isotropic =    67.4071   Anisotropy =   164.1124

  5  C    Isotropic =    78.7361   Anisotropy =   152.3887

  6  C    Isotropic =    67.4071   Anisotropy =   164.1119

  7  C    Isotropic =    82.9074   Anisotropy =   128.1785

  8  H    Isotropic =    29.7419   Anisotropy =    11.2153

  9  H    Isotropic =    29.7420   Anisotropy =    11.2150

 10  H    Isotropic =    25.9587   Anisotropy =     5.6390

 11  H    Isotropic =    25.2259   Anisotropy =     4.2464

 12  H    Isotropic =    25.6900   Anisotropy =     3.4983

 13  H    Isotropic =    25.2260   Anisotropy =     4.2464

 14  H    Isotropic =    25.9587   Anisotropy =     5.6388

  Exact polarizability:  91.422   0.000  76.296  -0.398  -0.000  24.501
 Approx polarizability: 148.606   0.000 126.732   1.024  -0.000  36.470

                     1                      2                      3
                     A                      A                      A
 Frequencies --   224.8357               286.2977               383.5717
 Red. masses --     3.6594                 1.0391                 2.9723
 Frc consts  --     0.1090                 0.0502                 0.2577
 IR Inten    --     5.0049                22.9118                 0.1619

                     4                      5                      6
                     A                      A                      A
 Frequencies --   418.0604               509.1016               536.8919
 Red. masses --     3.0967                 2.4577                 6.4000
 Frc consts  --     0.3189                 0.3753                 1.0869
 IR Inten    --     0.3423                45.5169                 3.1514

                     7                      8                      9
                     A                      A                      A
 Frequencies --   635.9130               639.7047               704.6128
 Red. masses --     6.3527                 1.4023                 2.0848
 Frc consts  --     1.5136                 0.3381                 0.6098
 IR Inten    --     0.2645               309.1711                 9.0788

                    10                     11                     12
                     A                      A                      A
 Frequencies --   764.2711               827.4290               835.5432
 Red. masses --     1.7195                 1.2572                 4.0859
 Frc consts  --     0.5918                 0.5071                 1.6806
 IR Inten    --    80.2360                 0.1162                 2.5925

                    13                     14                     15
                     A                      A                      A
 Frequencies --   878.6545               947.5044               975.1556
 Red. masses --     1.5090                 1.3217                 1.2195
 Frc consts  --     0.6864                 0.6991                 0.6832
 IR Inten    --    11.6994                 0.0000                 0.2345

                    16                     17                     18
                     A                      A                      A
 Frequencies --  1012.1497              1057.4808              1080.2897
 Red. masses --     5.8987                 2.1481                 1.6025
 Frc consts  --     3.5604                 1.4153                 1.1019
 IR Inten    --     0.6242                 1.9494                 2.5687

                    19                     20                     21
                     A                      A                      A
 Frequencies --  1151.2282              1189.9301              1211.6458
 Red. masses --     1.2496                 1.0892                 1.1280
 Frc consts  --     0.9757                 0.9086                 0.9757
 IR Inten    --     2.7967                 1.8056                 7.4410

                    22                     23                     24
                     A                      A                      A
 Frequencies --  1315.5574              1368.9457              1378.0138
 Red. masses --     3.1505                 4.9232                 1.3351
 Frc consts  --     3.2125                 5.4359                 1.4938
 IR Inten    --    54.6775                 7.4143                 0.7232

                    25                     26                     27
                     A                      A                      A
 Frequencies --  1519.7430              1552.1473              1647.2426
 Red. masses --     2.3236                 2.3635                 5.6447
 Frc consts  --     3.1620                 3.3548                 9.0242
 IR Inten    --     1.8287                54.3800                 4.5448

                    28                     29                     30
                     A                      A                      A
 Frequencies --  1668.4277              1695.6912              3170.3748
 Red. masses --     3.6603                 1.2720                 1.0858
 Frc consts  --     6.0031                 2.1549                 6.4300
 IR Inten    --    38.1622               104.6389                19.9987

                    31                     32                     33
                     A                      A                      A
 Frequencies --  3171.5269              3187.3521              3192.8404
 Red. masses --     1.0876                 1.0897                 1.0938
 Frc consts  --     6.4457                 6.5223                 6.5695
 IR Inten    --     5.3576                 4.1205                47.5643

                    34                     35                     36
                     A                      A                      A
 Frequencies --  3210.7666              3543.1617              3640.7628
 Red. masses --     1.0971                 1.0480                 1.0977
 Frc consts  --     6.6638                 7.7516                 8.5728
 IR Inten    --    19.2687                 9.1970                 7.0399

 - Thermochemistry -
 -------------------
 Temperature   298.150 Kelvin.  Pressure   1.00000 Atm.
 Atom     1 has atomic number  7 and mass  14.00307

 Molecular mass:    93.05785 amu.
 Principal axes and moments of inertia in atomic units:
                           1         2         3
     Eigenvalues --   321.55030 697.898191017.67864
           X            0.99997  -0.00000  -0.00774
           Y            0.00000   1.00000  -0.00000
           Z            0.00774   0.00000   0.99997
 This molecule is an asymmetric top.
 Rotational symmetry number  1.
 Rotational temperatures (Kelvin)      0.26936     0.12411     0.08511
 Rotational constants (GHZ):           5.61262     2.58597     1.77339
 Zero-point vibrational energy     308234.7 (Joules/Mol)
                                   73.66987 (Kcal/Mol)
 Warning -- explicit consideration of   6 degrees of freedom as
           vibrations may cause significant error
 Vibrational temperatures:    323.49   411.92   551.87   601.49   732.48
          (Kelvin)            772.47   914.94   920.39  1013.78  1099.61
                             1190.48  1202.16  1264.19  1363.25  1403.03
                             1456.26  1521.48  1554.29  1656.36  1712.04
                             1743.29  1892.79  1969.61  1982.65  2186.57
                             2233.19  2370.01  2400.49  2439.72  4561.46
                             4563.11  4585.88  4593.78  4619.57  5097.81
                             5238.24

 Zero-point correction=                           0.117400 (Hartree/Particle)
 Thermal correction to Energy=                    0.123180
 Thermal correction to Enthalpy=                  0.124124
 Thermal correction to Gibbs Free Energy=         0.088252
 Sum of electronic and zero-point Energies=           -287.484360
 Sum of electronic and thermal Energies=              -287.478580
 Sum of electronic and thermal Enthalpies=            -287.477636
 Sum of electronic and thermal Free Energies=         -287.513508

                     E (Thermal)             CV                S
                      KCal/Mol        Cal/Mol-Kelvin    Cal/Mol-Kelvin
 Total                   77.296             23.065             75.498
 Electronic               0.000              0.000              0.000
 Translational            0.889              2.981             39.504
 Rotational               0.889              2.981             26.926
 Vibrational             75.519             17.103              9.068
 Vibration     1          0.649              1.803              1.920
 Vibration     2          0.684              1.699              1.496
 Vibration     3          0.753              1.505              1.025
 Vibration     4          0.781              1.431              0.899
 Vibration     5          0.864              1.230              0.636
 Vibration     6          0.892              1.168              0.572

 Normal termination of Gaussian 09 at Mon Oct  4 21:40:29 2021.
 Gaussian 09:  AM64L-G09RevA.02 11-Jun-2009

 ----------------------------------------------------------------------
 #p TD(NStates=10, Root=1) b3lyp/6-31G* volume pop=NPA density=current
 Geom=AllCheck Guess=Read
 ----------------------------------------------------------------------

 Nc1ccccc1_conf_0
 ----------------
 Redundant internal coordinates taken from checkpoint file:
 C6H7N_f73f_conf_0.chk
 Charge =  0 Multiplicity = 1

                         Standard orientation:
 ---------------------------------------------------------------------
 Center     Atomic      Atomic             Coordinates (Angstroms)
 Number     Number       Type             X           Y           Z
 ---------------------------------------------------------------------
      1          7           0       -2.337795   -0.000010   -0.079730
      2          6           0       -0.938528   -0.000002   -0.009960
      3          6           0       -0.221260   -1.208228   -0.005117
      4          6           0        1.171821   -1.202589    0.003458
      5          6           0        1.881718    0.000001    0.008188
      6          6           0        1.171819    1.202592    0.003457
      7          6           0       -0.221261    1.208226   -0.005106
      8          1           0       -2.776679   -0.834430    0.290877
      9          1           0       -2.776673    0.834501    0.290679
     10          1           0       -0.763424   -2.151640   -0.013513
     11          1           0        1.705637   -2.149780    0.008817
     12          1           0        2.967647    0.000003    0.016386
     13          1           0        1.705633    2.149784    0.008817
     14          1           0       -0.763427    2.151637   -0.013481
 ---------------------------------------------------------------------

 SCF Done:  E(RB3LYP) =  -287.601760023     A.U. after    1 cycles

 Excitation energies and oscillator strengths:

 Excited State   1:      Singlet-A      4.9185 eV  252.08 nm  f=0.0321  <S**2>=0.000
      24 -> 27         0.25993
      25 -> 26         0.65730
 This state for optimization and/or second-order correction.
 Total Energy, E(TD-HF/TD-KS) =  -287.421010097
 Copying the excited state density for this state as the 1-particle RhoCI density.

 Excited State   2:      Singlet-A      5.7787 eV  214.55 nm  f=0.1375  <S**2>=0.000
      24 -> 26        -0.27933
      25 -> 27         0.64290

 Excited State   3:      Singlet-A      6.5483 eV  189.34 nm  f=0.0183  <S**2>=0.000
      24 -> 26         0.20248
      25 -> 28         0.67374

 Excited State   4:      Singlet-A      6.7634 eV  183.32 nm  f=0.1485  <S**2>=0.000
      23 -> 26        -0.31442
      24 -> 27         0.58534
      25 -> 26        -0.22409

 Excited State   5:      Singlet-A      6.9989 eV  177.15 nm  f=0.5278  <S**2>=0.000
      23 -> 27         0.13298
      24 -> 26         0.59622
      25 -> 27         0.27593
      25 -> 28        -0.18689
      25 -> 29         0.10091

 Excited State   6:      Singlet-A      7.1997 eV  172.21 nm  f=0.0187  <S**2>=0.000
      25 -> 29         0.69657

 Excited State   7:      Singlet-A      7.6411 eV  162.26 nm  f=0.0015  <S**2>=0.000
      23 -> 26        -0.13793
      24 -> 28        -0.13882
      25 -> 30         0.67224

 Excited State   8:      Singlet-A      7.8604 eV  157.73 nm  f=0.0819  <S**2>=0.000
      23 -> 26         0.37011
      24 -> 27         0.17402
      24 -> 28         0.52940
      25 -> 30         0.18875

 Excited State   9:      Singlet-A      7.9678 eV  155.61 nm  f=0.0031  <S**2>=0.000
      22 -> 26         0.70472

 Excited State  10:      Singlet-A      8.0385 eV  154.24 nm  f=0.1906  <S**2>=0.000
      21 -> 26         0.15381
      23 -> 26         0.45686
      24 -> 27         0.22106
      24 -> 28        -0.39946
      24 -> 29         0.19820
      25 -> 26        -0.10624

 The electronic state is 1-A.
 Alpha  occ. eigenvalues --  -14.33774 -10.22227 -10.18147 -10.18145 -10.17685
 Alpha  occ. eigenvalues --  -10.17685 -10.17192  -0.91300  -0.82670  -0.73503
 Alpha  occ. eigenvalues --   -0.71681  -0.60359  -0.58958  -0.51608  -0.50173
 Alpha  occ. eigenvalues --   -0.47122  -0.42455  -0.41818  -0.41013  -0.37329
 Alpha  occ. eigenvalues --   -0.34968  -0.33365  -0.30194  -0.24067  -0.19835
 Alpha virt. eigenvalues --    0.00912   0.02367   0.08201   0.10323   0.12427
 Alpha virt. eigenvalues --    0.16365   0.16626   0.17642   0.19522   0.19565
 Alpha virt. eigenvalues --    0.26597   0.31288   0.32610   0.35003   0.35628

 Mulliken atomic charges:
              1
     1  N   -0.698680
     2  C    0.279735
     3  C   -0.184174
     4  C   -0.174526
     5  C   -0.101348
     6  C   -0.174527
     7  C   -0.184174
     8  H    0.345037
     9  H    0.345041
    10  H    0.100045
    11  H    0.110257
    12  H    0.127012
    13  H    0.110257
    14  H    0.100043
 Sum of Mulliken atomic charges =  -0.00000

 Dipole moment (field-independent basis, Debye):
    X=             -3.0918    Y=              0.0001    Z=              1.0201  Tot=              3.2557
 Quadrupole moment (field-independent basis, Debye-Ang):
   XX=            -30.0162   YY=            -38.9477   ZZ=            -45.5086
   XY=             -0.0004   XZ=             -3.1046   YZ=             -0.0002

 Summary of Natural Population Analysis:

                                       Natural Population
                Natural  -----------------------------------------------
    Atom  No    Charge         Core      Valence    Rydberg      Total
 -----------------------------------------------------------------------
      N    1   -0.66496      1.99946     5.65468    0.01082     7.66496
      C    2    0.15693      1.99897     3.82542    0.01869     5.84307
      C    3   -0.31838      1.99905     4.30010    0.01923     6.31838
      C    4   -0.31177      1.99914     4.29280    0.01983     6.31177
      C    5   -0.15146      1.99911     4.13726    0.01510     6.15146
      C    6   -0.31178      1.99914     4.29281    0.01983     6.31178
      C    7   -0.31837      1.99905     4.30009    0.01923     6.31837
      H    8    0.40351      0.00000     0.59353    0.00296     0.59649
      H    9    0.40351      0.00000     0.59353    0.00296     0.59649
      H   10    0.21662      0.00000     0.78217    0.00121     0.78338
      H   11    0.22571      0.00000     0.77342    0.00087     0.77429
      H   12    0.22812      0.00000     0.77101    0.00087     0.77188
      H   13    0.22571      0.00000     0.77342    0.00087     0.77429
      H   14    0.21661      0.00000     0.78217    0.00121     0.78339
 =======================================================================
   * Total *    0.00000     13.99392    35.87242    0.13366    50.00000

 Normal termination of Gaussian 09 at Mon Oct  4 22:06:12 2021.
