 Gaussian 09, Revision A.02,

 -----------------------------------
 #p opt b3lyp/6-31G* scf=(xqc,tight)
 -----------------------------------

 --------------------
 OB(c1ccccc1)O_conf_0
 --------------------
 Symbolic Z-matrix:
 Charge =  0 Multiplicity = 1

 SCF Done:  E(RB3LYP) =  -408.220289381     A.U. after   14 cycles
 SCF Done:  E(RB3LYP) =  -408.228655223     A.U. after   15 cycles
 SCF Done:  E(RB3LYP) =  -408.231573385     A.U. after   15 cycles
 SCF Done:  E(RB3LYP) =  -408.238049296     A.U. after   14 cycles
 SCF Done:  E(RB3LYP) =  -408.243043789     A.U. after   12 cycles
 SCF Done:  E(RB3LYP) =  -408.254773127     A.U. after   14 cycles
 SCF Done:  E(RB3LYP) =  -408.258561759     A.U. after   15 cycles
 SCF Done:  E(RB3LYP) =  -408.258878247     A.U. after   15 cycles
 SCF Done:  E(RB3LYP) =  -408.258948524     A.U. after   15 cycles
 SCF Done:  E(RB3LYP) =  -408.258950710     A.U. after   13 cycles
 SCF Done:  E(RB3LYP) =  -408.258950141     A.U. after   13 cycles
 SCF Done:  E(RB3LYP) =  -408.258950832     A.U. after    7 cycles
 Optimization completed.
    -- Stationary point found.
 Normal termination of Gaussian 09 at Sun Oct  3 15:09:53 2021.

 ----------------------------------------------------------------------
 #p freq b3lyp/6-31G* volume NMR pop=NPA density=current Geom=AllCheck
 Guess=Read
 ----------------------------------------------------------------------

 OB(c1ccccc1)O_conf_0
 --------------------
 Redundant internal coordinates taken from checkpoint file:
 C6H7BO2_e176_conf_0.chk
 Charge =  0 Multiplicity = 1

 SCF Done:  E(RB3LYP) =  -408.258950832     A.U. after    1 cycles

  1  O    Isotropic =   226.8729   Anisotropy =    59.7800

  2  B    Isotropic =    85.3845   Anisotropy =    17.6213

  3  C    Isotropic =    66.0830   Anisotropy =   193.2028

  4  C    Isotropic =    60.6221   Anisotropy =   179.0322

  5  C    Isotropic =    69.5361   Anisotropy =   164.1189

  6  C    Isotropic =    65.6053   Anisotropy =   169.7005

  7  C    Isotropic =    69.5361   Anisotropy =   164.1189

  8  C    Isotropic =    60.6221   Anisotropy =   179.0322

  9  O    Isotropic =   226.8730   Anisotropy =    59.7800

 10  H    Isotropic =    29.4775   Anisotropy =    12.8897

 11  H    Isotropic =    24.2140   Anisotropy =     8.4025

 12  H    Isotropic =    24.9764   Anisotropy =     4.8719

 13  H    Isotropic =    24.9212   Anisotropy =     4.5846

 14  H    Isotropic =    24.9764   Anisotropy =     4.8719

 15  H    Isotropic =    24.2140   Anisotropy =     8.4025

 16  H    Isotropic =    29.4775   Anisotropy =    12.8897

  Exact polarizability: 109.363   0.000  84.639   0.000   0.000  30.246
 Approx polarizability: 161.095   0.000 143.385   0.000   0.001  45.510

                     1                      2                      3
                     A                      A                      A
 Frequencies --    56.0389               141.9083               165.3004
 Red. masses --     6.3003                 4.0719                 4.9406
 Frc consts  --     0.0117                 0.0483                 0.0795
 IR Inten    --     0.0000                 7.2727                 3.9875

                     4                      5                      6
                     A                      A                      A
 Frequencies --   335.1945               388.4414               417.6884
 Red. masses --     6.4632                 1.2309                 2.6825
 Frc consts  --     0.4278                 0.1094                 0.2757
 IR Inten    --     5.5604                 0.0000                29.6680

                     7                      8                      9
                     A                      A                      A
 Frequencies --   419.1534               425.7417               544.5230
 Red. masses --     2.0714                 6.7882                 1.3367
 Frc consts  --     0.2144                 0.7249                 0.2335
 IR Inten    --     0.0000                 4.8746               174.6055

                    10                     11                     12
                     A                      A                      A
 Frequencies --   551.9851               634.8006               648.2122
 Red. masses --     3.5603                 6.4172                 5.3784
 Frc consts  --     0.6391                 1.5236                 1.3315
 IR Inten    --    46.9358                 0.0322                84.2000

                    13                     14                     15
                     A                      A                      A
 Frequencies --   715.5342               736.3484               783.5016
 Red. masses --     1.7225                 5.2871                 2.0333
 Frc consts  --     0.5196                 1.6890                 0.7354
 IR Inten    --    28.7244                 1.3228                11.9249

                    16                     17                     18
                     A                      A                      A
 Frequencies --   875.0755               947.5118               950.2858
 Red. masses --     1.2478                 1.1017                 1.3716
 Frc consts  --     0.5630                 0.5827                 0.7298
 IR Inten    --     0.0000               179.7104                 1.2205

                    19                     20                     21
                     A                      A                      A
 Frequencies --   985.6603              1005.5484              1012.9363
 Red. masses --     1.3618                 1.2581                 3.5997
 Frc consts  --     0.7795                 0.7495                 2.1761
 IR Inten    --     0.0000                 0.1070               132.2644

                    22                     23                     24
                     A                      A                      A
 Frequencies --  1019.2025              1060.2994              1106.2107
 Red. masses --     4.9272                 2.2478                 1.6482
 Frc consts  --     3.0156                 1.4889                 1.1883
 IR Inten    --    36.0954                 4.3895                 4.9562

                    25                     26                     27
                     A                      A                      A
 Frequencies --  1137.6886              1193.2827              1218.3145
 Red. masses --     2.0292                 1.1039                 1.1458
 Frc consts  --     1.5475                 0.9261                 1.0021
 IR Inten    --    17.2433                 0.2512                 2.0131

                    28                     29                     30
                     A                      A                      A
 Frequencies --  1330.3169              1368.4895              1393.2640
 Red. masses --     3.4277                 1.7617                 3.3191
 Frc consts  --     3.5740                 1.9439                 3.7961
 IR Inten    --    21.5236                 0.3478               268.8505

                    31                     32                     33
                     A                      A                      A
 Frequencies --  1399.8629              1487.8637              1547.4760
 Red. masses --     6.6058                 2.2644                 2.2697
 Frc consts  --     7.6268                 2.9534                 3.2024
 IR Inten    --   259.1258                52.7528                 5.0471

                    34                     35                     36
                     A                      A                      A
 Frequencies --  1633.3847              1663.7146              3175.1017
 Red. masses --     5.1118                 5.4343                 1.0846
 Frc consts  --     8.0353                 8.8624                 6.4423
 IR Inten    --     2.6581                24.0939                 0.0057

                    37                     38                     39
                     A                      A                      A
 Frequencies --  3185.1099              3195.6965              3203.9576
 Red. masses --     1.0879                 1.0917                 1.0931
 Frc consts  --     6.5026                 6.5688                 6.6116
 IR Inten    --     8.5949                26.8090                38.2707

                    40                     41                     42
                     A                      A                      A
 Frequencies --  3208.6187              3782.4570              3786.3981
 Red. masses --     1.0969                 1.0671                 1.0650
 Frc consts  --     6.6534                 8.9951                 8.9959
 IR Inten    --     9.1521                 6.0507                40.5634

 - Thermochemistry -
 -------------------
 Temperature   298.150 Kelvin.  Pressure   1.00000 Atm.
 Atom     1 has atomic number  8 and mass  15.99491

 Molecular mass:   122.05391 amu.
 Principal axes and moments of inertia in atomic units:
                           1         2         3
     Eigenvalues --   493.881301595.172422089.05372
           X            1.00000  -0.00000  -0.00000
           Y            0.00000   1.00000   0.00000
           Z            0.00000  -0.00000   1.00000
 This molecule is an asymmetric top.
 Rotational symmetry number  1.
 Warning -- assumption of classical behavior for rotation
           may cause significant error
 Rotational temperatures (Kelvin)      0.17537     0.05430     0.04146
 Rotational constants (GHZ):           3.65420     1.13138     0.86390
 Zero-point vibrational energy     328004.7 (Joules/Mol)
                                   78.39500 (Kcal/Mol)
 Warning -- explicit consideration of  10 degrees of freedom as
           vibrations may cause significant error
 Vibrational temperatures:     80.63   204.17   237.83   482.27   558.88
          (Kelvin)            600.96   603.07   612.55   783.45   794.18
                              913.34   932.63  1029.49  1059.44  1127.28
                             1259.04  1363.26  1367.25  1418.14  1446.76
                             1457.39  1466.40  1525.53  1591.59  1636.88
                             1716.87  1752.88  1914.03  1968.95  2004.59
                             2014.09  2140.70  2226.47  2350.07  2393.71
                             4568.26  4582.66  4597.89  4609.77  4616.48
                             5442.11  5447.78

 Zero-point correction=                           0.124930 (Hartree/Particle)
 Thermal correction to Energy=                    0.132824
 Thermal correction to Enthalpy=                  0.133768
 Thermal correction to Gibbs Free Energy=         0.092080
 Sum of electronic and zero-point Energies=           -408.134020
 Sum of electronic and thermal Energies=              -408.126127
 Sum of electronic and thermal Enthalpies=            -408.125183
 Sum of electronic and thermal Free Energies=         -408.166871

                     E (Thermal)             CV                S
                      KCal/Mol        Cal/Mol-Kelvin    Cal/Mol-Kelvin
 Total                   83.348             30.356             87.739
 Electronic               0.000              0.000              0.000
 Translational            0.889              2.981             40.312
 Rotational               0.889              2.981             28.889
 Vibrational             81.571             24.394             18.539
 Vibration     1          0.596              1.975              4.592
 Vibration     2          0.615              1.911              2.778
 Vibration     3          0.624              1.885              2.488
 Vibration     4          0.716              1.605              1.235
 Vibration     5          0.757              1.495              1.006
 Vibration     6          0.781              1.432              0.900
 Vibration     7          0.782              1.429              0.895
 Vibration     8          0.788              1.414              0.873
 Vibration     9          0.900              1.152              0.556
 Vibration    10          0.907              1.135              0.540

 Optimization completed.
    -- Stationary point found.
 Normal termination of Gaussian 09 at Sun Oct  3 15:49:07 2021.
 Gaussian 09:  AM64L-G09RevA.02 11-Jun-2009

 ----------------------------------------------------------------------
 #p TD(NStates=10, Root=1) b3lyp/6-31G* volume pop=NPA density=current
 Geom=AllCheck Guess=Read
 ----------------------------------------------------------------------

 OB(c1ccccc1)O_conf_0
 --------------------
 Redundant internal coordinates taken from checkpoint file:
 C6H7BO2_e176_conf_0.chk
 Charge =  0 Multiplicity = 1

                         Standard orientation:
 ---------------------------------------------------------------------
 Center     Atomic      Atomic             Coordinates (Angstroms)
 Number     Number       Type             X           Y           Z
 ---------------------------------------------------------------------
      1          8           0       -2.385001    1.212727   -0.000018
      2          5           0       -1.734943   -0.000000   -0.000026
      3          6           0       -0.173186   -0.000000   -0.000012
      4          6           0        0.551519   -1.205224   -0.000030
      5          6           0        1.946057   -1.209041    0.000006
      6          6           0        2.645727   -0.000000    0.000008
      7          6           0        1.946057    1.209041    0.000001
      8          6           0        0.551519    1.205224    0.000017
      9          8           0       -2.385001   -1.212727    0.000034
     10          1           0       -3.350616    1.154102    0.000045
     11          1           0        0.010024   -2.147382   -0.000049
     12          1           0        2.488315   -2.151399    0.000007
     13          1           0        3.733112   -0.000000    0.000016
     14          1           0        2.488315    2.151399    0.000007
     15          1           0        0.010024    2.147382    0.000027
     16          1           0       -3.350616   -1.154102    0.000015
 ---------------------------------------------------------------------

 SCF Done:  E(RB3LYP) =  -408.258950832     A.U. after    1 cycles

 Excitation energies and oscillator strengths:

 Excited State   1:      Singlet-A      5.1841 eV  239.16 nm  f=0.0103  <S**2>=0.000
      31 -> 34         0.37545
      32 -> 33         0.59888
 This state for optimization and/or second-order correction.
 Total Energy, E(TD-HF/TD-KS) =  -408.068437254
 Copying the excited state density for this state as the 1-particle RhoCI density.

 Excited State   2:      Singlet-A      5.8141 eV  213.25 nm  f=0.1626  <S**2>=0.000
      31 -> 33         0.64755
      32 -> 34        -0.27729

 Excited State   3:      Singlet-A      6.8549 eV  180.87 nm  f=0.2799  <S**2>=0.000
      31 -> 34         0.57629
      32 -> 33        -0.36591
      32 -> 36        -0.16553

 Excited State   4:      Singlet-A      6.8712 eV  180.44 nm  f=0.0007  <S**2>=0.000
      30 -> 33        -0.35601
      31 -> 35         0.60818

 Excited State   5:      Singlet-A      6.9357 eV  178.76 nm  f=0.0041  <S**2>=0.000
      30 -> 33         0.60864
      31 -> 35         0.35597

 Excited State   6:      Singlet-A      6.9430 eV  178.57 nm  f=0.0000  <S**2>=0.000
      32 -> 35         0.70560

 Excited State   7:      Singlet-A      6.9716 eV  177.84 nm  f=0.6236  <S**2>=0.000
      31 -> 33         0.26516
      31 -> 36         0.12770
      32 -> 34         0.63550

 Excited State   8:      Singlet-A      7.1295 eV  173.90 nm  f=0.0000  <S**2>=0.000
      28 -> 33         0.69360

 Excited State   9:      Singlet-A      7.5209 eV  164.85 nm  f=0.0000  <S**2>=0.000
      30 -> 34         0.69978

 Excited State  10:      Singlet-A      7.6256 eV  162.59 nm  f=0.0442  <S**2>=0.000
      29 -> 33         0.69626

 The electronic state is 1-A.
 Alpha  occ. eigenvalues --  -19.16202 -19.16201 -10.18341 -10.17888 -10.17885
 Alpha  occ. eigenvalues --  -10.17790 -10.17789 -10.16024  -6.78315  -1.03778
 Alpha  occ. eigenvalues --   -1.00367  -0.83668  -0.73131  -0.73083  -0.60108
 Alpha  occ. eigenvalues --   -0.59187  -0.55581  -0.53921  -0.49878  -0.44156
 Alpha  occ. eigenvalues --   -0.42817  -0.42648  -0.40687  -0.38751  -0.38299
 Alpha  occ. eigenvalues --   -0.34738  -0.34226  -0.32494  -0.31979  -0.31423
 Alpha  occ. eigenvalues --   -0.23949  -0.23814
 Alpha virt. eigenvalues --   -0.01507   0.01274   0.03990   0.09827   0.10425
 Alpha virt. eigenvalues --    0.11025   0.15555   0.17302   0.19206   0.19586
 Alpha virt. eigenvalues --    0.20300   0.22123   0.29176   0.29814   0.32052

 Mulliken atomic charges:
              1
     1  O   -0.571551
     2  B    0.306311
     3  C    0.091258
     4  C   -0.189456
     5  C   -0.107671
     6  C   -0.150626
     7  C   -0.107671
     8  C   -0.189456
     9  O   -0.571551
    10  H    0.384451
    11  H    0.156078
    12  H    0.140260
    13  H    0.128833
    14  H    0.140260
    15  H    0.156078
    16  H    0.384451
 Sum of Mulliken atomic charges =  -0.00000

 Dipole moment (field-independent basis, Debye):
    X=             -1.1535    Y=              0.0000    Z=              0.0000  Tot=              1.1535
 Quadrupole moment (field-independent basis, Debye-Ang):
   XX=            -33.6230   YY=            -50.2451   ZZ=            -54.3368
   XY=             -0.0000   XZ=             -0.0002   YZ=              0.0003

 Summary of Natural Population Analysis:

                                       Natural Population
                Natural  -----------------------------------------------
    Atom  No    Charge         Core      Valence    Rydberg      Total
 -----------------------------------------------------------------------
      O    1   -0.89607      1.99975     6.88658    0.00974     8.89607
      B    2    1.03573      1.99924     1.93855    0.02648     3.96427
      C    3   -0.41328      1.99900     4.39426    0.02001     6.41328
      C    4   -0.15428      1.99914     4.13824    0.01690     6.15428
      C    5   -0.17993      1.99914     4.16390    0.01689     6.17993
      C    6   -0.28918      1.99916     4.27235    0.01767     6.28918
      C    7   -0.17993      1.99914     4.16390    0.01689     6.17993
      C    8   -0.15428      1.99914     4.13824    0.01690     6.15428
      O    9   -0.89607      1.99975     6.88658    0.00974     8.89607
      H   10    0.47825      0.00000     0.51963    0.00212     0.52175
      H   11    0.23963      0.00000     0.75903    0.00133     0.76037
      H   12    0.23046      0.00000     0.76862    0.00092     0.76954
      H   13    0.23060      0.00000     0.76855    0.00084     0.76940
      H   14    0.23046      0.00000     0.76862    0.00092     0.76954
      H   15    0.23963      0.00000     0.75903    0.00133     0.76037
      H   16    0.47825      0.00000     0.51963    0.00212     0.52175
 =======================================================================
   * Total *   -0.00000     17.99344    45.84574    0.16082    64.00000

 Normal termination of Gaussian 09 at Sun Oct  3 17:33:14 2021.
