 Gaussian 09, Revision A.02,

 -----------------------------------
 #p opt b3lyp/6-31G* scf=(xqc,tight)
 -----------------------------------

 --------------------
 [Li]C1=CCCCC1_conf_0
 --------------------
 Symbolic Z-matrix:
 Charge =  0 Multiplicity = 1

 SCF Done:  E(RB3LYP) =  -241.529252987     A.U. after   14 cycles
 SCF Done:  E(RB3LYP) =  -241.534165794     A.U. after   11 cycles
 SCF Done:  E(RB3LYP) =  -241.534718008     A.U. after   10 cycles
 SCF Done:  E(RB3LYP) =  -241.534862624     A.U. after   10 cycles
 SCF Done:  E(RB3LYP) =  -241.535043515     A.U. after   10 cycles
 SCF Done:  E(RB3LYP) =  -241.535255300     A.U. after   10 cycles
 SCF Done:  E(RB3LYP) =  -241.535621546     A.U. after   11 cycles
 SCF Done:  E(RB3LYP) =  -241.537585348     A.U. after   13 cycles
 SCF Done:  E(RB3LYP) =  -241.499210521     A.U. after   13 cycles
 SCF Done:  E(RB3LYP) =  -241.537608089     A.U. after   13 cycles
 SCF Done:  E(RB3LYP) =  -241.537796025     A.U. after    9 cycles
 SCF Done:  E(RB3LYP) =  -241.537918350     A.U. after   10 cycles
 SCF Done:  E(RB3LYP) =  -241.537936038     A.U. after    8 cycles
 SCF Done:  E(RB3LYP) =  -241.537965784     A.U. after   10 cycles
 SCF Done:  E(RB3LYP) =  -241.537971035     A.U. after    8 cycles
 SCF Done:  E(RB3LYP) =  -241.537972718     A.U. after    8 cycles
 SCF Done:  E(RB3LYP) =  -241.537972850     A.U. after    7 cycles
 Optimization completed.
    -- Stationary point found.
 Normal termination of Gaussian 09 at Sun Oct  3 02:20:21 2021.

 ----------------------------------------------------------------------
 #p freq b3lyp/6-31G* volume NMR pop=NPA density=current Geom=AllCheck
 Guess=Read
 ----------------------------------------------------------------------

 [Li]C1=CCCCC1_conf_0
 --------------------
 Redundant internal coordinates taken from checkpoint file:
 C6H9Li_b5fb_conf_0.chk
 Charge =  0 Multiplicity = 1

 SCF Done:  E(RB3LYP) =  -241.537972850     A.U. after    1 cycles

  1  Li   Isotropic =    89.9081   Anisotropy =    13.9204

  2  C    Isotropic =     5.1121   Anisotropy =   263.2705

  3  C    Isotropic =    67.8766   Anisotropy =    98.1228

  4  C    Isotropic =   159.3678   Anisotropy =    10.5673

  5  C    Isotropic =   163.1741   Anisotropy =     4.0898

  6  C    Isotropic =   163.8402   Anisotropy =     6.2153

  7  C    Isotropic =   152.7359   Anisotropy =    16.7510

  8  H    Isotropic =    26.3391   Anisotropy =     1.9752

  9  H    Isotropic =    30.0347   Anisotropy =     6.9387

 10  H    Isotropic =    30.4865   Anisotropy =     7.6560

 11  H    Isotropic =    30.6615   Anisotropy =     7.9563

 12  H    Isotropic =    30.5061   Anisotropy =     6.8514

 13  H    Isotropic =    30.6218   Anisotropy =     6.7928

 14  H    Isotropic =    30.8471   Anisotropy =     7.8051

 15  H    Isotropic =    29.4828   Anisotropy =     7.7523

 16  H    Isotropic =    29.6920   Anisotropy =     6.3123

  Exact polarizability:  95.412  -8.637  81.852   1.273  -1.536  59.727
 Approx polarizability: 114.509  -9.336 117.244   1.618  -3.606  86.421

                     1                      2                      3
                     A                      A                      A
 Frequencies --   104.0748               201.0225               237.6804
 Red. masses --     3.3571                 2.1933                 6.0837
 Frc consts  --     0.0214                 0.0522                 0.2025
 IR Inten    --    28.2950                28.2169                73.4352

                     4                      5                      6
                     A                      A                      A
 Frequencies --   281.9277               401.6097               445.6532
 Red. masses --     1.8700                 2.1248                 2.9585
 Frc consts  --     0.0876                 0.2019                 0.3462
 IR Inten    --     2.6163                 5.6249                 9.4103

                     7                      8                      9
                     A                      A                      A
 Frequencies --   485.8784               602.2992               689.1857
 Red. masses --     3.5507                 3.8784                 1.7691
 Frc consts  --     0.4939                 0.8289                 0.4951
 IR Inten    --     5.7370                43.3334                 6.6390

                    10                     11                     12
                     A                      A                      A
 Frequencies --   760.6051               832.5404               838.4109
 Red. masses --     1.4218                 1.4207                 3.6110
 Frc consts  --     0.4846                 0.5802                 1.4955
 IR Inten    --     7.0281                 1.0636                 6.2645

                    13                     14                     15
                     A                      A                      A
 Frequencies --   901.0560               928.9995               946.1027
 Red. masses --     2.7839                 1.6513                 2.1745
 Frc consts  --     1.3317                 0.8397                 1.1468
 IR Inten    --     6.7205                 6.3153                 5.1617

                    16                     17                     18
                     A                      A                      A
 Frequencies --  1021.9659              1076.3451              1083.0350
 Red. masses --     2.9159                 2.0435                 1.9015
 Frc consts  --     1.7943                 1.3949                 1.3141
 IR Inten    --     0.0393                 1.7090                 1.5644

                    19                     20                     21
                     A                      A                      A
 Frequencies --  1100.4270              1155.2240              1197.3848
 Red. masses --     1.8012                 1.1447                 1.3540
 Frc consts  --     1.2851                 0.9000                 1.1437
 IR Inten    --     0.2974                 5.9839                 0.2528

                    22                     23                     24
                     A                      A                      A
 Frequencies --  1275.4491              1298.6737              1360.2313
 Red. masses --     1.2938                 1.1857                 1.3439
 Frc consts  --     1.2400                 1.1782                 1.4650
 IR Inten    --     2.1321                 0.6138                 1.2926

                    25                     26                     27
                     A                      A                      A
 Frequencies --  1367.9093              1378.3116              1397.0028
 Red. masses --     1.4408                 1.4433                 1.4802
 Frc consts  --     1.5884                 1.6155                 1.7020
 IR Inten    --     5.6250                 2.4724                 7.2123

                    28                     29                     30
                     A                      A                      A
 Frequencies --  1433.4749              1496.6914              1508.1946
 Red. masses --     1.5115                 1.0913                 1.0888
 Frc consts  --     1.8299                 1.4403                 1.4592
 IR Inten    --    11.8889                 2.5372                 1.4414

                    31                     32                     33
                     A                      A                      A
 Frequencies --  1518.1599              1529.8629              1608.0150
 Red. masses --     1.0895                 1.1039                 3.8510
 Frc consts  --     1.4794                 1.5223                 5.8669
 IR Inten    --     2.4256                 0.4348                25.7519

                    34                     35                     36
                     A                      A                      A
 Frequencies --  2768.4473              2991.8282              2997.3478
 Red. masses --     1.0757                 1.0682                 1.0710
 Frc consts  --     4.8576                 5.6337                 5.6690
 IR Inten    --   270.6632                53.9869                25.1697

                    37                     38                     39
                     A                      A                      A
 Frequencies --  3017.0882              3020.2087              3035.3661
 Red. masses --     1.0652                 1.0725                 1.0825
 Frc consts  --     5.7130                 5.7639                 5.8764
 IR Inten    --    24.1973                 8.7279                82.6243

                    40                     41                     42
                     A                      A                      A
 Frequencies --  3040.1268              3059.3766              3068.9886
 Red. masses --     1.0878                 1.0981                 1.1045
 Frc consts  --     5.9238                 6.0555                 6.1295
 IR Inten    --    45.6242                82.5100                76.3065

 - Thermochemistry -
 -------------------
 Temperature   298.150 Kelvin.  Pressure   1.00000 Atm.
 Atom     1 has atomic number  3 and mass   7.01600

 Molecular mass:    88.08643 amu.
 Principal axes and moments of inertia in atomic units:
                           1         2         3
     Eigenvalues --   393.62954 610.73369 932.60046
           X            0.99939   0.03478  -0.00244
           Y           -0.03478   0.99939  -0.00218
           Z            0.00236   0.00226   0.99999
 This molecule is an asymmetric top.
 Rotational symmetry number  1.
 Rotational temperatures (Kelvin)      0.22004     0.14182     0.09287
 Rotational constants (GHZ):           4.58487     2.95504     1.93517
 Zero-point vibrational energy     355662.8 (Joules/Mol)
                                   85.00546 (Kcal/Mol)
 Warning -- explicit consideration of   8 degrees of freedom as
           vibrations may cause significant error
 Vibrational temperatures:    149.74   289.23   341.97   405.63   577.83
          (Kelvin)            641.19   699.07   866.57   991.58  1094.34
                             1197.84  1206.28  1296.42  1336.62  1361.23
                             1470.38  1548.62  1558.24  1583.27  1662.11
                             1722.77  1835.08  1868.50  1957.07  1968.11
                             1983.08  2009.97  2062.45  2153.40  2169.95
                             2184.29  2201.13  2313.57  3983.17  4304.57
                             4312.51  4340.91  4345.40  4367.21  4374.06
                             4401.76  4415.58

 Zero-point correction=                           0.135465 (Hartree/Particle)
 Thermal correction to Energy=                    0.142227
 Thermal correction to Enthalpy=                  0.143171
 Thermal correction to Gibbs Free Energy=         0.105218
 Sum of electronic and zero-point Energies=           -241.402508
 Sum of electronic and thermal Energies=              -241.395746
 Sum of electronic and thermal Enthalpies=            -241.394802
 Sum of electronic and thermal Free Energies=         -241.432754

                     E (Thermal)             CV                S
                      KCal/Mol        Cal/Mol-Kelvin    Cal/Mol-Kelvin
 Total                   89.249             25.412             79.877
 Electronic               0.000              0.000              0.000
 Translational            0.889              2.981             39.340
 Rotational               0.889              2.981             26.908
 Vibrational             87.471             19.451             13.629
 Vibration     1          0.605              1.946              3.377
 Vibration     2          0.638              1.838              2.124
 Vibration     3          0.656              1.783              1.820
 Vibration     4          0.681              1.707              1.522
 Vibration     5          0.767              1.467              0.957
 Vibration     6          0.805              1.370              0.809
 Vibration     7          0.842              1.281              0.694
 Vibration     8          0.961              1.027              0.446

 Optimization completed.
    -- Stationary point found.
 Normal termination of Gaussian 09 at Sun Oct  3 02:57:46 2021.
 Gaussian 09:  AM64L-G09RevA.02 11-Jun-2009

 ----------------------------------------------------------------------
 #p TD(NStates=10, Root=1) b3lyp/6-31G* volume pop=NPA density=current
 Geom=AllCheck Guess=Read
 ----------------------------------------------------------------------

 [Li]C1=CCCCC1_conf_0
 --------------------
 Redundant internal coordinates taken from checkpoint file:
 C6H9Li_b5fb_conf_0.chk
 Charge =  0 Multiplicity = 1

                         Standard orientation:
 ---------------------------------------------------------------------
 Center     Atomic      Atomic             Coordinates (Angstroms)
 Number     Number       Type             X           Y           Z
 ---------------------------------------------------------------------
      1          3           0        3.079299   -0.091054    0.046410
      2          6           0        1.265316   -0.592835    0.045585
      3          6           0        1.065596    0.742579   -0.062511
      4          6           0       -0.259800    1.487989   -0.115775
      5          6           0       -1.413983    0.573880    0.325778
      6          6           0       -1.277996   -0.813594   -0.314436
      7          6           0        0.043653   -1.484922    0.109302
      8          1           0        1.932536    1.449328   -0.126185
      9          1           0       -0.444935    1.853958   -1.139181
     10          1           0       -0.221956    2.386831    0.517162
     11          1           0       -2.379027    1.032236    0.073303
     12          1           0       -1.390614    0.467398    1.419934
     13          1           0       -1.295318   -0.704153   -1.408970
     14          1           0       -2.135947   -1.446766   -0.049900
     15          1           0        0.211115   -2.386898   -0.495835
     16          1           0       -0.050471   -1.857344    1.142793
 ---------------------------------------------------------------------

 SCF Done:  E(RB3LYP) =  -241.537972850     A.U. after    1 cycles

 Excitation energies and oscillator strengths:

 Excited State   1:      Singlet-A      2.5838 eV  479.86 nm  f=0.0229  <S**2>=0.000
      24 -> 25         0.70556
 This state for optimization and/or second-order correction.
 Total Energy, E(TD-HF/TD-KS) =  -241.443021755
 Copying the excited state density for this state as the 1-particle RhoCI density.

 Excited State   2:      Singlet-A      3.5489 eV  349.36 nm  f=0.0156  <S**2>=0.000
      23 -> 25         0.70574

 Excited State   3:      Singlet-A      4.2063 eV  294.76 nm  f=0.0317  <S**2>=0.000
      24 -> 26         0.70447

 Excited State   4:      Singlet-A      4.5262 eV  273.93 nm  f=0.0828  <S**2>=0.000
      23 -> 26         0.12099
      24 -> 27         0.68946

 Excited State   5:      Singlet-A      5.0612 eV  244.97 nm  f=0.0079  <S**2>=0.000
      23 -> 27        -0.12734
      24 -> 28         0.52656
      24 -> 29        -0.44012

 Excited State   6:      Singlet-A      5.3382 eV  232.26 nm  f=0.0262  <S**2>=0.000
      23 -> 26         0.45057
      23 -> 27         0.25858
      24 -> 28         0.30038
      24 -> 29         0.35907

 Excited State   7:      Singlet-A      5.4044 eV  229.41 nm  f=0.0320  <S**2>=0.000
      23 -> 26        -0.30512
      23 -> 27         0.61159
      24 -> 29        -0.11425

 Excited State   8:      Singlet-A      5.4882 eV  225.91 nm  f=0.1065  <S**2>=0.000
      23 -> 26         0.40247
      23 -> 27         0.19697
      24 -> 27        -0.10521
      24 -> 28        -0.34067
      24 -> 29        -0.39660

 Excited State   9:      Singlet-A      5.8667 eV  211.33 nm  f=0.0457  <S**2>=0.000
      22 -> 25         0.69609
      23 -> 26         0.10128

 Excited State  10:      Singlet-A      6.2633 eV  197.95 nm  f=0.0169  <S**2>=0.000
      23 -> 28         0.67525
      23 -> 29         0.19844

 The electronic state is 1-A.
 Alpha  occ. eigenvalues --  -10.16372 -10.15896 -10.15839 -10.15274 -10.14813
 Alpha  occ. eigenvalues --  -10.11609  -1.99065  -0.79490  -0.70768  -0.69858
 Alpha  occ. eigenvalues --   -0.58646  -0.56285  -0.47901  -0.44154  -0.41128
 Alpha  occ. eigenvalues --   -0.39554  -0.35912  -0.35457  -0.34759  -0.31682
 Alpha  occ. eigenvalues --   -0.30161  -0.28250  -0.20755  -0.17242
 Alpha virt. eigenvalues --   -0.04331   0.01769   0.02357   0.05511   0.06818
 Alpha virt. eigenvalues --    0.11695   0.13547   0.13697   0.14258   0.15574
 Alpha virt. eigenvalues --    0.17262   0.18458   0.19106   0.20094   0.20644

 Mulliken atomic charges:
              1
     1  Li  -0.224396
     2  C   -0.066193
     3  C   -0.087128
     4  C   -0.302484
     5  C   -0.274920
     6  C   -0.269413
     7  C   -0.350926
     8  H    0.243702
     9  H    0.178348
    10  H    0.177854
    11  H    0.151901
    12  H    0.155086
    13  H    0.158362
    14  H    0.159209
    15  H    0.174843
    16  H    0.176156
 Sum of Mulliken atomic charges =  -0.00000

 Dipole moment (field-independent basis, Debye):
    X=             -7.5130    Y=             -1.5803    Z=             -0.0771  Tot=              7.6778
 Quadrupole moment (field-independent basis, Debye-Ang):
   XX=            -78.2492   YY=            -41.0659   ZZ=            -45.4499
   XY=             -7.1740   XZ=             -0.0903   YZ=             -0.4796

 Summary of Natural Population Analysis:

                                       Natural Population
                Natural  -----------------------------------------------
    Atom  No    Charge         Core      Valence    Rydberg      Total
 -----------------------------------------------------------------------
     Li    1    0.05081      1.99460     0.95000    0.00458     2.94919
      C    2   -0.06198      1.99857     4.04335    0.02006     6.06198
      C    3   -0.34670      1.99901     4.33368    0.01401     6.34670
      C    4   -0.47161      1.99925     4.46004    0.01232     6.47161
      C    5   -0.46131      1.99933     4.45030    0.01168     6.46131
      C    6   -0.44884      1.99930     4.43811    0.01143     6.44884
      C    7   -0.53577      1.99926     4.52329    0.01322     6.53577
      H    8    0.24158      0.00000     0.75842    0.00000     0.75842
      H    9    0.25976      0.00000     0.73918    0.00106     0.74024
      H   10    0.26498      0.00000     0.73439    0.00062     0.73502
      H   11    0.25236      0.00000     0.74672    0.00092     0.74764
      H   12    0.23723      0.00000     0.76124    0.00152     0.76277
      H   13    0.23918      0.00000     0.75920    0.00163     0.76082
      H   14    0.25593      0.00000     0.74321    0.00086     0.74407
      H   15    0.26536      0.00000     0.73366    0.00097     0.73464
      H   16    0.25712      0.00000     0.74118    0.00170     0.74288
 =======================================================================
   * Total *   -0.00188     13.98932    33.91598    0.09658    48.00188

 Normal termination of Gaussian 09 at Sun Oct  3 04:47:24 2021.
