 Gaussian 09, Revision A.02,

 -----------------------------------
 #p opt b3lyp/6-31G* scf=(xqc,tight)
 -----------------------------------

 ------------------
 CCCCn1cncc1_conf_0
 ------------------
 Symbolic Z-matrix:
 Charge =  0 Multiplicity = 1

 SCF Done:  E(RB3LYP) =  -383.470068844     A.U. after   14 cycles
 SCF Done:  E(RB3LYP) =  -383.471260477     A.U. after   12 cycles
 SCF Done:  E(RB3LYP) =  -383.471502050     A.U. after   11 cycles
 SCF Done:  E(RB3LYP) =  -383.471548689     A.U. after   11 cycles
 SCF Done:  E(RB3LYP) =  -383.471575904     A.U. after   12 cycles
 SCF Done:  E(RB3LYP) =  -383.471580348     A.U. after   11 cycles
 SCF Done:  E(RB3LYP) =  -383.471581691     A.U. after   11 cycles
 SCF Done:  E(RB3LYP) =  -383.471585023     A.U. after   12 cycles
 SCF Done:  E(RB3LYP) =  -383.471592311     A.U. after   11 cycles
 SCF Done:  E(RB3LYP) =  -383.471599768     A.U. after   10 cycles
 SCF Done:  E(RB3LYP) =  -383.471603490     A.U. after    9 cycles
 SCF Done:  E(RB3LYP) =  -383.471604362     A.U. after   10 cycles
 SCF Done:  E(RB3LYP) =  -383.471604312     A.U. after    8 cycles
 SCF Done:  E(RB3LYP) =  -383.471604378     A.U. after    7 cycles
 Optimization completed.
    -- Stationary point found.
 Normal termination of Gaussian 09 at Mon Oct  4 23:11:39 2021.

 ----------------------------------------------------------------------
 #p freq b3lyp/6-31G* volume NMR pop=NPA density=current Geom=AllCheck
 Guess=Read
 ----------------------------------------------------------------------

 CCCCn1cncc1_conf_0
 ------------------
 Redundant internal coordinates taken from checkpoint file:
 C7H12N2_1c34_conf_0.chk
 Charge =  0 Multiplicity = 1

 SCF Done:  E(RB3LYP) =  -383.471604378     A.U. after    1 cycles

  1  C    Isotropic =   173.9723   Anisotropy =    23.6346

  2  C    Isotropic =   166.4414   Anisotropy =    15.8328

  3  C    Isotropic =   152.4815   Anisotropy =    39.4118

  4  C    Isotropic =   141.7219   Anisotropy =    45.3502

  5  N    Isotropic =    83.4800   Anisotropy =   137.6039

  6  C    Isotropic =    61.8670   Anisotropy =    75.8457

  7  N    Isotropic =    -8.9513   Anisotropy =   381.9638

  8  C    Isotropic =    65.7007   Anisotropy =   105.4519

  9  C    Isotropic =    79.1411   Anisotropy =    96.3420

 10  H    Isotropic =    30.9890   Anisotropy =     9.9423

 11  H    Isotropic =    31.2102   Anisotropy =     8.0058

 12  H    Isotropic =    31.2029   Anisotropy =     7.9529

 13  H    Isotropic =    30.7239   Anisotropy =     6.4314

 14  H    Isotropic =    30.7437   Anisotropy =     6.7735

 15  H    Isotropic =    30.5269   Anisotropy =     3.3791

 16  H    Isotropic =    30.3375   Anisotropy =     4.6000

 17  H    Isotropic =    28.4762   Anisotropy =     5.1806

 18  H    Isotropic =    28.5578   Anisotropy =     4.4228

 19  H    Isotropic =    25.2777   Anisotropy =     4.9942

 20  H    Isotropic =    25.3796   Anisotropy =     3.4748

 21  H    Isotropic =    25.7161   Anisotropy =     4.7058

  Exact polarizability: 103.023  -3.735  80.500   9.149   3.849  60.781
 Approx polarizability: 131.692  -3.559 127.865  20.204   9.979  91.561

                     1                      2                      3
                     A                      A                      A
 Frequencies --    39.0155                80.0108                82.6559
 Red. masses --     3.0390                 1.8473                 4.0654
 Frc consts  --     0.0027                 0.0070                 0.0164
 IR Inten    --     1.7773                 0.5963                 0.9973

                     4                      5                      6
                     A                      A                      A
 Frequencies --   119.0357               217.3281               247.7352
 Red. masses --     2.1869                 3.3623                 1.1127
 Frc consts  --     0.0183                 0.0936                 0.0402
 IR Inten    --     0.1294                 0.1203                 0.0196

                     7                      8                      9
                     A                      A                      A
 Frequencies --   323.1020               341.3579               430.1222
 Red. masses --     4.4598                 2.4429                 2.8859
 Frc consts  --     0.2743                 0.1677                 0.3146
 IR Inten    --     0.2842                 0.6836                 1.5362

                    10                     11                     12
                     A                      A                      A
 Frequencies --   636.3511               675.9516               714.1929
 Red. masses --     3.8747                 4.0489                 1.2236
 Frc consts  --     0.9244                 1.0900                 0.3677
 IR Inten    --     3.7835                15.0195                17.1419

                    13                     14                     15
                     A                      A                      A
 Frequencies --   737.2653               746.1003               801.2828
 Red. masses --     4.2708                 1.0875                 1.3374
 Frc consts  --     1.3677                 0.3567                 0.5059
 IR Inten    --     6.0320                 3.0241                23.4405

                    16                     17                     18
                     A                      A                      A
 Frequencies --   805.6197               848.3394               915.5347
 Red. masses --     1.1711                 1.3161                 5.8337
 Frc consts  --     0.4478                 0.5581                 2.8810
 IR Inten    --     0.4721                 2.6624                12.7825

                    19                     20                     21
                     A                      A                      A
 Frequencies --   919.4590               951.0872              1019.6312
 Red. masses --     1.8196                 1.2168                 3.8235
 Frc consts  --     0.9063                 0.6485                 2.3421
 IR Inten    --     0.4647                 0.4717                 4.1567

                    22                     23                     24
                     A                      A                      A
 Frequencies --  1048.9083              1067.4110              1102.9515
 Red. masses --     3.5304                 2.4033                 1.3777
 Frc consts  --     2.2885                 1.6134                 0.9875
 IR Inten    --    16.3289                 0.0853                22.0415

                    25                     26                     27
                     A                      A                      A
 Frequencies --  1134.1208              1145.0289              1152.6911
 Red. masses --     1.8899                 1.9281                 1.8307
 Frc consts  --     1.4322                 1.4894                 1.4332
 IR Inten    --     2.5373                 1.9507                14.1654

                    28                     29                     30
                     A                      A                      A
 Frequencies --  1247.1811              1270.8248              1304.3803
 Red. masses --     1.5677                 1.7888                 1.3802
 Frc consts  --     1.4367                 1.7021                 1.3836
 IR Inten    --     1.5665                32.7033                14.5499

                    31                     32                     33
                     A                      A                      A
 Frequencies --  1314.5551              1325.9035              1344.6457
 Red. masses --     1.6090                 1.4845                 1.0684
 Frc consts  --     1.6382                 1.5377                 1.1382
 IR Inten    --     9.8723                11.0527                 0.8621

                    34                     35                     36
                     A                      A                      A
 Frequencies --  1397.5752              1402.5791              1424.7430
 Red. masses --     1.8804                 2.6217                 1.7741
 Frc consts  --     2.1640                 3.0387                 2.1218
 IR Inten    --     2.8765                 3.9299                 9.4434

                    37                     38                     39
                     A                      A                      A
 Frequencies --  1431.4694              1443.4603              1509.7668
 Red. masses --     2.0953                 1.2424                 1.2066
 Frc consts  --     2.5296                 1.5251                 1.6205
 IR Inten    --    13.1815                 2.2421                14.3999

                    40                     41                     42
                     A                      A                      A
 Frequencies --  1518.6238              1529.2154              1529.8970
 Red. masses --     1.0708                 1.1069                 1.0434
 Frc consts  --     1.4550                 1.5251                 1.4388
 IR Inten    --     0.1328                 9.0555                 6.3370

                    43                     44                     45
                     A                      A                      A
 Frequencies --  1541.4202              1548.5525              1557.4339
 Red. masses --     1.1768                 2.1713                 3.6214
 Frc consts  --     1.6473                 3.0678                 5.1754
 IR Inten    --     5.5944                33.0642                27.5275

                    46                     47                     48
                     A                      A                      A
 Frequencies --  3024.9841              3040.9941              3046.9902
 Red. masses --     1.0595                 1.0562                 1.0392
 Frc consts  --     5.7119                 5.7546                 5.6847
 IR Inten    --    18.4651                 8.8385                33.4748

                    49                     50                     51
                     A                      A                      A
 Frequencies --  3051.3518              3059.2899              3078.9685
 Red. masses --     1.1019                 1.0615                 1.1029
 Frc consts  --     6.0445                 5.8537                 6.1603
 IR Inten    --     7.8196                51.8912                10.5318

                    52                     53                     54
                     A                      A                      A
 Frequencies --  3107.7988              3113.1068              3117.7770
 Red. masses --     1.1057                 1.1037                 1.1021
 Frc consts  --     6.2920                 6.3021                 6.3121
 IR Inten    --     2.8423                79.5885                39.3195

                    55                     56                     57
                     A                      A                      A
 Frequencies --  3254.6953              3257.4692              3285.1423
 Red. masses --     1.0944                 1.0919                 1.1038
 Frc consts  --     6.8304                 6.8267                 7.0189
 IR Inten    --     7.0661                 4.7419                 3.9196

 - Thermochemistry -
 -------------------
 Temperature   298.150 Kelvin.  Pressure   1.00000 Atm.
 Atom     1 has atomic number  6 and mass  12.00000

 Molecular mass:   124.10005 amu.
 Principal axes and moments of inertia in atomic units:
                           1         2         3
     Eigenvalues --   342.648442684.519062772.16823
           X            0.99997  -0.00349  -0.00635
           Y            0.00330   0.99959  -0.02861
           Z            0.00645   0.02859   0.99957
 This molecule is an asymmetric top.
 Rotational symmetry number  1.
 Rotational temperatures (Kelvin)      0.25278     0.03226     0.03124
 Rotational constants (GHZ):           5.26703     0.67228     0.65102
 Zero-point vibrational energy     486778.9 (Joules/Mol)
                                  116.34296 (Kcal/Mol)
 Warning -- explicit consideration of   9 degrees of freedom as
           vibrations may cause significant error
 Vibrational temperatures:     56.13   115.12   118.92   171.27   312.69
          (Kelvin)            356.44   464.87   491.14   618.85   915.57
                              972.54  1027.56  1060.76  1073.47  1152.87
                             1159.11  1220.57  1317.25  1322.89  1368.40
                             1467.02  1509.14  1535.76  1586.90  1631.74
                             1647.44  1658.46  1794.41  1828.43  1876.71
                             1891.35  1907.68  1934.64  2010.80  2018.00
                             2049.88  2059.56  2076.81  2172.21  2184.96
                             2200.20  2201.18  2217.76  2228.02  2240.80
                             4352.27  4375.31  4383.93  4390.21  4401.63
                             4429.94  4471.42  4479.06  4485.78  4682.77
                             4686.77  4726.58

 Zero-point correction=                           0.185404 (Hartree/Particle)
 Thermal correction to Energy=                    0.194647
 Thermal correction to Enthalpy=                  0.195591
 Thermal correction to Gibbs Free Energy=         0.149894
 Sum of electronic and zero-point Energies=           -383.286200
 Sum of electronic and thermal Energies=              -383.276958
 Sum of electronic and thermal Enthalpies=            -383.276014
 Sum of electronic and thermal Free Energies=         -383.321710

                     E (Thermal)             CV                S
                      KCal/Mol        Cal/Mol-Kelvin    Cal/Mol-Kelvin
 Total                  122.143             33.253             96.177
 Electronic               0.000              0.000              0.000
 Translational            0.889              2.981             40.362
 Rotational               0.889              2.981             29.324
 Vibrational            120.365             27.291             26.492
 Vibration     1          0.594              1.981              5.308
 Vibration     2          0.600              1.963              3.891
 Vibration     3          0.600              1.961              3.827
 Vibration     4          0.609              1.933              3.116
 Vibration     5          0.646              1.815              1.981
 Vibration     6          0.661              1.767              1.747
 Vibration     7          0.708              1.629              1.294
 Vibration     8          0.721              1.593              1.206
 Vibration     9          0.791              1.405              0.858

 Optimization completed.
    -- Stationary point found.
 Normal termination of Gaussian 09 at Mon Oct  4 23:32:20 2021.
 Gaussian 09:  AM64L-G09RevA.02 11-Jun-2009

 ----------------------------------------------------------------------
 #p TD(NStates=10, Root=1) b3lyp/6-31G* volume pop=NPA density=current
 Geom=AllCheck Guess=Read
 ----------------------------------------------------------------------

 CCCCn1cncc1_conf_0
 ------------------
 Redundant internal coordinates taken from checkpoint file:
 C7H12N2_1c34_conf_0.chk
 Charge =  0 Multiplicity = 1

                         Standard orientation:
 ---------------------------------------------------------------------
 Center     Atomic      Atomic             Coordinates (Angstroms)
 Number     Number       Type             X           Y           Z
 ---------------------------------------------------------------------
      1          6           0        3.924833    0.293440   -0.634395
      2          6           0        2.843522   -0.197863    0.333366
      3          6           0        1.421887    0.090897   -0.164601
      4          6           0        0.346362   -0.399295    0.813826
      5          7           0       -1.013717   -0.149797    0.350948
      6          6           0       -1.859029   -1.053575   -0.233114
      7          7           0       -3.002169   -0.514011   -0.599365
      8          6           0       -2.896885    0.811248   -0.241507
      9          6           0       -1.680348    1.061083    0.343957
     10          1           0        4.928209    0.073314   -0.253598
     11          1           0        3.856283    1.377084   -0.788314
     12          1           0        3.826686   -0.187268   -1.615093
     13          1           0        2.989382    0.273947    1.315592
     14          1           0        2.960630   -1.279008    0.494410
     15          1           0        1.259441   -0.389162   -1.138730
     16          1           0        1.296120    1.169865   -0.325972
     17          1           0        0.472911    0.080059    1.791961
     18          1           0        0.442512   -1.478957    0.973080
     19          1           0       -1.581516   -2.093315   -0.354002
     20          1           0       -3.705532    1.507917   -0.419064
     21          1           0       -1.235976    1.956579    0.753450
 ---------------------------------------------------------------------

 SCF Done:  E(RB3LYP) =  -383.471604378     A.U. after    2 cycles

 Excitation energies and oscillator strengths:

 Excited State   1:      Singlet-A      6.5211 eV  190.13 nm  f=0.0161  <S**2>=0.000
      33 -> 35         0.65186
      34 -> 35        -0.25133
 This state for optimization and/or second-order correction.
 Total Energy, E(TD-HF/TD-KS) =  -383.231959793
 Copying the excited state density for this state as the 1-particle RhoCI density.

 Excited State   2:      Singlet-A      6.5474 eV  189.36 nm  f=0.0883  <S**2>=0.000
      32 -> 35         0.12667
      33 -> 35         0.25442
      34 -> 35         0.61440
      34 -> 37        -0.12581

 Excited State   3:      Singlet-A      7.0593 eV  175.63 nm  f=0.0132  <S**2>=0.000
      32 -> 35         0.50994
      34 -> 35        -0.17431
      34 -> 36         0.37840
      34 -> 37        -0.23526

 Excited State   4:      Singlet-A      7.3251 eV  169.26 nm  f=0.0105  <S**2>=0.000
      32 -> 35        -0.11809
      34 -> 36         0.47237
      34 -> 37         0.47857
      34 -> 38        -0.14515

 Excited State   5:      Singlet-A      7.6068 eV  162.99 nm  f=0.0103  <S**2>=0.000
      33 -> 36        -0.48029
      33 -> 37         0.50672

 Excited State   6:      Singlet-A      7.9573 eV  155.81 nm  f=0.0116  <S**2>=0.000
      34 -> 36         0.15664
      34 -> 38         0.64143
      34 -> 39        -0.10887
      34 -> 40        -0.18270

 Excited State   7:      Singlet-A      7.9629 eV  155.70 nm  f=0.0083  <S**2>=0.000
      34 -> 37         0.11765
      34 -> 39         0.65535
      34 -> 40        -0.16078
      34 -> 43        -0.12484

 Excited State   8:      Singlet-A      8.0913 eV  153.23 nm  f=0.3746  <S**2>=0.000
      32 -> 35         0.37897
      32 -> 36        -0.25225
      33 -> 36         0.10130
      34 -> 36        -0.27302
      34 -> 37         0.36989
      34 -> 39        -0.12001

 Excited State   9:      Singlet-A      8.4080 eV  147.46 nm  f=0.0145  <S**2>=0.000
      32 -> 35         0.10107
      32 -> 36         0.48152
      32 -> 37         0.34716
      32 -> 38        -0.11058
      33 -> 36         0.16321
      33 -> 37         0.18216
      34 -> 40         0.17435

 Excited State  10:      Singlet-A      8.4304 eV  147.07 nm  f=0.0133  <S**2>=0.000
      32 -> 37        -0.20438
      34 -> 38         0.18618
      34 -> 39         0.15217
      34 -> 40         0.58547
      34 -> 42        -0.13530

 The electronic state is 1-A.
 Alpha  occ. eigenvalues --  -14.38681 -14.30049 -10.23995 -10.22701 -10.20377
 Alpha  occ. eigenvalues --  -10.19738 -10.19623 -10.18773 -10.18425  -1.00718
 Alpha  occ. eigenvalues --   -0.87916  -0.80387  -0.74568  -0.72415  -0.65782
 Alpha  occ. eigenvalues --   -0.59808  -0.58736  -0.56681  -0.52649  -0.48765
 Alpha  occ. eigenvalues --   -0.45816  -0.44371  -0.42685  -0.41867  -0.41326
 Alpha  occ. eigenvalues --   -0.39752  -0.38752  -0.36903  -0.35419  -0.34840
 Alpha  occ. eigenvalues --   -0.34099  -0.25951  -0.25616  -0.21873
 Alpha virt. eigenvalues --    0.03430   0.07618   0.07912   0.10186   0.10613
 Alpha virt. eigenvalues --    0.12564   0.13217   0.14868   0.15262   0.16178
 Alpha virt. eigenvalues --    0.16793   0.17352   0.18233   0.18907   0.19469

 Mulliken atomic charges:
              1
     1  C   -0.440129
     2  C   -0.251635
     3  C   -0.243774
     4  C   -0.140077
     5  N   -0.374362
     6  C    0.143033
     7  N   -0.326379
     8  C   -0.021035
     9  C   -0.035970
    10  H    0.142392
    11  H    0.143510
    12  H    0.144304
    13  H    0.130548
    14  H    0.130913
    15  H    0.141723
    16  H    0.137658
    17  H    0.137154
    18  H    0.139117
    19  H    0.143116
    20  H    0.153583
    21  H    0.146308
 Sum of Mulliken atomic charges =  -0.00000

 Dipole moment (field-independent basis, Debye):
    X=              1.1374    Y=              0.1260    Z=              0.3577  Tot=              1.1990
 Quadrupole moment (field-independent basis, Debye-Ang):
   XX=            -55.9768   YY=            -52.1152   ZZ=            -57.4604
   XY=             -1.9503   XZ=              1.3535   YZ=              0.9310

 Summary of Natural Population Analysis:

                                       Natural Population
                Natural  -----------------------------------------------
    Atom  No    Charge         Core      Valence    Rydberg      Total
 -----------------------------------------------------------------------
      C    1   -0.67158      1.99947     4.66457    0.00755     6.67158
      C    2   -0.45824      1.99935     4.44900    0.00989     6.45824
      C    3   -0.46804      1.99932     4.45750    0.01122     6.46804
      C    4   -0.23837      1.99932     4.22235    0.01670     6.23837
      N    5   -0.41473      1.99933     5.40126    0.01413     7.41473
      C    6   -0.01498      1.99930     3.97900    0.03668     6.01498
      N    7   -0.15157      1.99886     5.13962    0.01309     7.15157
      C    8   -0.12027      1.99909     4.10022    0.02096     6.12027
      C    9   -0.20058      1.99913     4.17622    0.02523     6.20058
      H   10    0.23125      0.00000     0.76770    0.00105     0.76875
      H   11    0.22530      0.00000     0.77365    0.00106     0.77470
      H   12    0.22573      0.00000     0.77321    0.00106     0.77427
      H   13    0.22494      0.00000     0.77271    0.00235     0.77506
      H   14    0.22526      0.00000     0.77266    0.00208     0.77474
      H   15    0.23326      0.00000     0.76486    0.00188     0.76674
      H   16    0.22940      0.00000     0.76884    0.00176     0.77060
      H   17    0.21903      0.00000     0.77470    0.00627     0.78097
      H   18    0.22600      0.00000     0.76953    0.00448     0.77400
      H   19    0.22028      0.00000     0.77868    0.00103     0.77972
      H   20    0.23998      0.00000     0.75965    0.00037     0.76002
      H   21    0.23795      0.00000     0.76137    0.00068     0.76205
 =======================================================================
   * Total *   -0.00000     17.99317    49.82732    0.17951    68.00000

 Normal termination of Gaussian 09 at Tue Oct  5 00:19:59 2021.
