 Gaussian 09, Revision A.02,

 -----------------------------------
 #p opt b3lyp/6-31G* scf=(xqc,tight)
 -----------------------------------

 --------------------
 O=C=NC1CCCCC1_conf_0
 --------------------
 Symbolic Z-matrix:
 Charge =  0 Multiplicity = 1

 SCF Done:  E(RB3LYP) =  -403.348243888     A.U. after   14 cycles
 SCF Done:  E(RB3LYP) =  -403.357117986     A.U. after   15 cycles
 SCF Done:  E(RB3LYP) =  -403.356987415     A.U. after   13 cycles
 SCF Done:  E(RB3LYP) =  -403.358594841     A.U. after   12 cycles
 SCF Done:  E(RB3LYP) =  -403.359376170     A.U. after   12 cycles
 SCF Done:  E(RB3LYP) =  -403.359963485     A.U. after   12 cycles
 SCF Done:  E(RB3LYP) =  -403.360050565     A.U. after   11 cycles
 SCF Done:  E(RB3LYP) =  -403.360066273     A.U. after   11 cycles
 SCF Done:  E(RB3LYP) =  -403.360067844     A.U. after    8 cycles
 SCF Done:  E(RB3LYP) =  -403.360068180     A.U. after    8 cycles
 SCF Done:  E(RB3LYP) =  -403.360068887     A.U. after    9 cycles
 SCF Done:  E(RB3LYP) =  -403.360069878     A.U. after   10 cycles
 SCF Done:  E(RB3LYP) =  -403.360070046     A.U. after   15 cycles
 Optimization completed.
    -- Stationary point found.
 Normal termination of Gaussian 09 at Mon Oct  4 04:31:52 2021.

 ----------------------------------------------------------------------
 #p freq b3lyp/6-31G* volume NMR pop=NPA density=current Geom=AllCheck
 Guess=Read
 ----------------------------------------------------------------------

 O=C=NC1CCCCC1_conf_0
 --------------------
 Redundant internal coordinates taken from checkpoint file:
 C7H11NO_babe_conf_0.chk
 Charge =  0 Multiplicity = 1

 SCF Done:  E(RB3LYP) =  -403.360070046     A.U. after    1 cycles

  1  O    Isotropic =   199.5079   Anisotropy =   251.8561

  2  C    Isotropic =    77.1678   Anisotropy =   288.1538

  3  N    Isotropic =   210.4595   Anisotropy =   183.2229

  4  C    Isotropic =   136.0015   Anisotropy =    39.0910

  5  C    Isotropic =   151.9289   Anisotropy =    20.9091

  6  C    Isotropic =   162.8174   Anisotropy =     7.4075

  7  C    Isotropic =   163.1450   Anisotropy =     3.0456

  8  C    Isotropic =   162.8171   Anisotropy =     7.4072

  9  C    Isotropic =   151.9284   Anisotropy =    20.9093

 10  H    Isotropic =    29.3713   Anisotropy =     4.9410

 11  H    Isotropic =    30.0588   Anisotropy =     6.8936

 12  H    Isotropic =    30.7775   Anisotropy =     5.2015

 13  H    Isotropic =    30.7732   Anisotropy =     7.9108

 14  H    Isotropic =    30.4967   Anisotropy =     9.4895

 15  H    Isotropic =    30.6319   Anisotropy =     9.4369

 16  H    Isotropic =    30.8325   Anisotropy =     7.7052

 17  H    Isotropic =    30.7732   Anisotropy =     7.9107

 18  H    Isotropic =    30.4967   Anisotropy =     9.4895

 19  H    Isotropic =    30.0588   Anisotropy =     6.8936

 20  H    Isotropic =    30.7775   Anisotropy =     5.2014

  Exact polarizability:  97.898  -0.001  68.998   8.354  -0.000  67.284
 Approx polarizability: 133.448  -0.002  91.579  26.765  -0.001 114.000

                     1                      2                      3
                     A                      A                      A
 Frequencies --    24.1447                75.5055               177.9568
 Red. masses --     5.6337                 5.3509                 3.2132
 Frc consts  --     0.0019                 0.0180                 0.0600
 IR Inten    --     0.0105                 1.2195                 3.9815

                     4                      5                      6
                     A                      A                      A
 Frequencies --   225.0589               333.2096               341.4657
 Red. masses --     1.7734                 1.8072                 4.7500
 Frc consts  --     0.0529                 0.1182                 0.3263
 IR Inten    --     0.0004                 1.8182                 4.6690

                     7                      8                      9
                     A                      A                      A
 Frequencies --   382.1839               449.8733               461.8470
 Red. masses --     4.2233                 3.3050                 2.1159
 Frc consts  --     0.3634                 0.3941                 0.2659
 IR Inten    --     0.0971                 0.0014                 2.0066

                    10                     11                     12
                     A                      A                      A
 Frequencies --   524.2718               570.0495               644.6160
 Red. masses --     1.8944                12.4772                 8.8832
 Frc consts  --     0.3068                 2.3889                 2.1748
 IR Inten    --     0.2150                22.2341                27.2351

                    13                     14                     15
                     A                      A                      A
 Frequencies --   787.6573               799.2541               848.3178
 Red. masses --     2.3707                 1.4480                 2.7259
 Frc consts  --     0.8666                 0.5450                 1.1558
 IR Inten    --     6.4521                 0.2667                 5.9252

                    16                     17                     18
                     A                      A                      A
 Frequencies --   898.8594               905.1847               914.7295
 Red. masses --     1.5172                 1.8811                 3.5069
 Frc consts  --     0.7222                 0.9081                 1.7289
 IR Inten    --     5.3122                 5.9813                26.4515

                    19                     20                     21
                     A                      A                      A
 Frequencies --   941.2888              1030.1434              1045.1993
 Red. masses --     1.4917                 2.2573                 2.1361
 Frc consts  --     0.7787                 1.4114                 1.3749
 IR Inten    --     0.3394                21.0326                 7.3934

                    22                     23                     24
                     A                      A                      A
 Frequencies --  1069.8231              1097.2783              1102.6788
 Red. masses --     1.4290                 1.1919                 2.4733
 Frc consts  --     0.9636                 0.8455                 1.7719
 IR Inten    --     0.9429                 0.0609                 0.9888

                    25                     26                     27
                     A                      A                      A
 Frequencies --  1178.8307              1218.7535              1286.0097
 Red. masses --     2.3292                 1.4435                 1.2943
 Frc consts  --     1.9071                 1.2633                 1.2611
 IR Inten    --     4.5789                 0.1653                 1.0474

                    28                     29                     30
                     A                      A                      A
 Frequencies --  1297.7723              1300.1338              1351.0046
 Red. masses --     1.2678                 1.2658                 1.3039
 Frc consts  --     1.2580                 1.2607                 1.4022
 IR Inten    --     3.5959                 2.7875                 0.1808

                    31                     32                     33
                     A                      A                      A
 Frequencies --  1364.7406              1384.3994              1390.6001
 Red. masses --     1.2511                 1.3854                 1.3341
 Frc consts  --     1.3729                 1.5644                 1.5200
 IR Inten    --     7.8347                 1.3767                 1.3904

                    34                     35                     36
                     A                      A                      A
 Frequencies --  1399.7085              1399.9501              1417.2735
 Red. masses --     1.4582                 1.4895                 1.5154
 Frc consts  --     1.6832                 1.7200                 1.7934
 IR Inten    --     0.0147                 9.6558                11.5286

                    37                     38                     39
                     A                      A                      A
 Frequencies --  1490.2792              1509.6111              1514.8128
 Red. masses --     5.1023                 1.0863                 1.0946
 Frc consts  --     6.6766                 1.4585                 1.4799
 IR Inten    --     4.7592                 0.0001                 0.7889

                    40                     41                     42
                     A                      A                      A
 Frequencies --  1515.2746              1520.7157              1534.8938
 Red. masses --     1.0961                 1.0940                 1.1010
 Frc consts  --     1.4828                 1.4907                 1.5283
 IR Inten    --     3.1890                11.0482                 1.8842

                    43                     44                     45
                     A                      A                      A
 Frequencies --  2372.0386              3025.0127              3025.2374
 Red. masses --    12.5897                 1.0715                 1.0694
 Frc consts  --    41.7358                 5.7769                 5.7662
 IR Inten    --  1059.1963                13.3760                19.8947

                    46                     47                     48
                     A                      A                      A
 Frequencies --  3030.4975              3032.5507              3034.1138
 Red. masses --     1.0675                 1.0631                 1.0644
 Frc consts  --     5.7761                 5.7604                 5.7733
 IR Inten    --     7.9273                 0.0000                31.6240

                    49                     50                     51
                     A                      A                      A
 Frequencies --  3052.8921              3078.3408              3079.3445
 Red. masses --     1.0792                 1.0940                 1.0968
 Frc consts  --     5.9264                 6.1078                 6.1278
 IR Inten    --    45.7950                52.4226                51.0973

                    52                     53                     54
                     A                      A                      A
 Frequencies --  3083.6655              3090.6501              3095.3968
 Red. masses --     1.0996                 1.0988                 1.1012
 Frc consts  --     6.1608                 6.1839                 6.2165
 IR Inten    --    38.0774                31.3687                65.0110

 - Thermochemistry -
 -------------------
 Temperature   298.150 Kelvin.  Pressure   1.00000 Atm.
 Atom     1 has atomic number  8 and mass  15.99491

 Molecular mass:   125.08406 amu.
 Principal axes and moments of inertia in atomic units:
                           1         2         3
     Eigenvalues --   501.806491988.787372223.84894
           X            0.99998   0.00000  -0.00608
           Y           -0.00000   1.00000   0.00000
           Z            0.00608  -0.00000   0.99998
 This molecule is an asymmetric top.
 Rotational symmetry number  1.
 Warning -- assumption of classical behavior for rotation
           may cause significant error
 Rotational temperatures (Kelvin)      0.17260     0.04355     0.03895
 Rotational constants (GHZ):           3.59649     0.90746     0.81154
 Zero-point vibrational energy     458918.0 (Joules/Mol)
                                  109.68404 (Kcal/Mol)
 Warning -- explicit consideration of  11 degrees of freedom as
           vibrations may cause significant error
 Vibrational temperatures:     34.74   108.64   256.04   323.81   479.41
          (Kelvin)            491.29   549.88   647.27   664.49   754.31
                              820.17   927.46  1133.26  1149.95  1220.54
                             1293.26  1302.36  1316.09  1354.30  1482.14
                             1503.81  1539.23  1578.74  1586.51  1696.07
                             1753.51  1850.28  1867.20  1870.60  1943.79
                             1963.55  1991.84  2000.76  2013.87  2014.21
                             2039.14  2144.18  2171.99  2179.48  2180.14
                             2187.97  2208.37  3412.83  4352.31  4352.64
                             4360.20  4363.16  4365.41  4392.43  4429.04
                             4430.48  4436.70  4446.75  4453.58

 Zero-point correction=                           0.174793 (Hartree/Particle)
 Thermal correction to Energy=                    0.183257
 Thermal correction to Enthalpy=                  0.184201
 Thermal correction to Gibbs Free Energy=         0.140265
 Sum of electronic and zero-point Energies=           -403.185277
 Sum of electronic and thermal Energies=              -403.176813
 Sum of electronic and thermal Enthalpies=            -403.175869
 Sum of electronic and thermal Free Energies=         -403.219805

                     E (Thermal)             CV                S
                      KCal/Mol        Cal/Mol-Kelvin    Cal/Mol-Kelvin
 Total                  114.996             31.656             92.471
 Electronic               0.000              0.000              0.000
 Translational            0.889              2.981             40.385
 Rotational               0.889              2.981             29.186
 Vibrational            113.218             25.694             22.901
 Vibration     1          0.593              1.985              6.260
 Vibration     2          0.599              1.965              4.004
 Vibration     3          0.628              1.869              2.350
 Vibration     4          0.650              1.803              1.918
 Vibration     5          0.715              1.609              1.244
 Vibration     6          0.721              1.593              1.205
 Vibration     7          0.752              1.508              1.031
 Vibration     8          0.809              1.361              0.796
 Vibration     9          0.820              1.335              0.761
 Vibration    10          0.879              1.196              0.600
 Vibration    11          0.926              1.096              0.504

 Optimization completed.
    -- Stationary point found.
 Normal termination of Gaussian 09 at Mon Oct  4 05:11:14 2021.
 Gaussian 09:  AM64L-G09RevA.02 11-Jun-2009

 ----------------------------------------------------------------------
 #p TD(NStates=10, Root=1) b3lyp/6-31G* volume pop=NPA density=current
 Geom=AllCheck Guess=Read
 ----------------------------------------------------------------------

 O=C=NC1CCCCC1_conf_0
 --------------------
 Redundant internal coordinates taken from checkpoint file:
 C7H11NO_babe_conf_0.chk
 Charge =  0 Multiplicity = 1

                         Standard orientation:
 ---------------------------------------------------------------------
 Center     Atomic      Atomic             Coordinates (Angstroms)
 Number     Number       Type             X           Y           Z
 ---------------------------------------------------------------------
      1          8           0       -3.564114    0.000059   -0.694037
      2          6           0       -2.571098   -0.000038   -0.052297
      3          7           0       -1.648101   -0.000062    0.725787
      4          6           0       -0.195420   -0.000036    0.696606
      5          6           0        0.358070    1.269387    0.025637
      6          6           0        1.895139    1.269202    0.029288
      7          6           0        2.461830    0.000039   -0.625781
      8          6           0        1.895182   -1.269166    0.029247
      9          6           0        0.358112   -1.269410    0.025582
     10          1           0        0.126155   -0.000055    1.745800
     11          1           0       -0.034646    2.155546    0.537453
     12          1           0       -0.011616    1.305728   -1.009308
     13          1           0        2.255233    1.335901    1.066392
     14          1           0        2.265712    2.164124   -0.485237
     15          1           0        3.557264    0.000052   -0.566726
     16          1           0        2.205710    0.000050   -1.695324
     17          1           0        2.255264   -1.335878    1.066355
     18          1           0        2.265798   -2.164057   -0.485298
     19          1           0       -0.034571   -2.155606    0.537359
     20          1           0       -0.011575   -1.305716   -1.009365
 ---------------------------------------------------------------------

 SCF Done:  E(RB3LYP) =  -403.360070046     A.U. after    1 cycles

 Excitation energies and oscillator strengths:

 Excited State   1:      Singlet-A      6.3309 eV  195.84 nm  f=0.0001  <S**2>=0.000
      34 -> 35         0.69252
 This state for optimization and/or second-order correction.
 Total Energy, E(TD-HF/TD-KS) =  -403.127412460
 Copying the excited state density for this state as the 1-particle RhoCI density.

 Excited State   2:      Singlet-A      7.1799 eV  172.68 nm  f=0.0110  <S**2>=0.000
      33 -> 35         0.56682
      34 -> 36        -0.41128

 Excited State   3:      Singlet-A      7.9187 eV  156.57 nm  f=0.0002  <S**2>=0.000
      33 -> 36         0.69419

 Excited State   4:      Singlet-A      8.5061 eV  145.76 nm  f=0.0002  <S**2>=0.000
      32 -> 35         0.62465
      34 -> 35         0.10643
      34 -> 37         0.28884

 Excited State   5:      Singlet-A      8.6195 eV  143.84 nm  f=0.0009  <S**2>=0.000
      32 -> 35        -0.28825
      34 -> 37         0.63305

 Excited State   6:      Singlet-A      8.7934 eV  141.00 nm  f=0.0991  <S**2>=0.000
      28 -> 35        -0.11711
      30 -> 35        -0.21260
      31 -> 35         0.45823
      33 -> 35         0.22795
      33 -> 37         0.32222
      34 -> 36         0.24915

 Excited State   7:      Singlet-A      8.9977 eV  137.80 nm  f=0.0046  <S**2>=0.000
      30 -> 35         0.40381
      31 -> 35         0.45803
      33 -> 37        -0.33474

 Excited State   8:      Singlet-A      9.0337 eV  137.25 nm  f=0.0066  <S**2>=0.000
      30 -> 35         0.49964
      31 -> 35        -0.10206
      33 -> 37         0.47583

 Excited State   9:      Singlet-A      9.0742 eV  136.63 nm  f=0.0026  <S**2>=0.000
      34 -> 38         0.65509
      34 -> 39         0.22633

 Excited State  10:      Singlet-A      9.2061 eV  134.68 nm  f=0.0060  <S**2>=0.000
      34 -> 38        -0.22709
      34 -> 39         0.64830

 The electronic state is 1-A.
 Alpha  occ. eigenvalues --  -19.18238 -14.35094 -10.31384 -10.24565 -10.19320
 Alpha  occ. eigenvalues --  -10.19319 -10.19122 -10.19122 -10.18876  -1.08426
 Alpha  occ. eigenvalues --   -0.94581  -0.83744  -0.75681  -0.75232  -0.64568
 Alpha  occ. eigenvalues --   -0.62227  -0.57209  -0.52849  -0.48638  -0.47868
 Alpha  occ. eigenvalues --   -0.45840  -0.45484  -0.44198  -0.43031  -0.41644
 Alpha  occ. eigenvalues --   -0.39191  -0.38915  -0.36498  -0.35548  -0.33398
 Alpha  occ. eigenvalues --   -0.33039  -0.32032  -0.28143  -0.26713
 Alpha virt. eigenvalues --    0.02649   0.07029   0.07945   0.09875   0.11569
 Alpha virt. eigenvalues --    0.12241   0.14138   0.15566   0.16296   0.16778
 Alpha virt. eigenvalues --    0.16929   0.17211   0.17671   0.17739   0.21173

 Mulliken atomic charges:
              1
     1  O   -0.344257
     2  C    0.360146
     3  N   -0.293720
     4  C    0.037875
     5  C   -0.274543
     6  C   -0.264732
     7  C   -0.258949
     8  C   -0.264732
     9  C   -0.274543
    10  H    0.147798
    11  H    0.149893
    12  H    0.144059
    13  H    0.137086
    14  H    0.145612
    15  H    0.138652
    16  H    0.137707
    17  H    0.137086
    18  H    0.145611
    19  H    0.149893
    20  H    0.144057
 Sum of Mulliken atomic charges =  -0.00000

 Dipole moment (field-independent basis, Debye):
    X=              3.7914    Y=             -0.0001    Z=              0.4853  Tot=              3.8223
 Quadrupole moment (field-independent basis, Debye-Ang):
   XX=            -64.5724   YY=            -51.6898   ZZ=            -55.7291
   XY=              0.0003   XZ=             -1.7488   YZ=              0.0002

 Summary of Natural Population Analysis:

                                       Natural Population
                Natural  -----------------------------------------------
    Atom  No    Charge         Core      Valence    Rydberg      Total
 -----------------------------------------------------------------------
      O    1   -0.39080      1.99982     6.37404    0.01695     8.39080
      C    2    0.46580      1.99937     3.47874    0.05609     5.53420
      N    3   -0.31400      1.99928     5.28103    0.03369     7.31400
      C    4   -0.08902      1.99912     4.06926    0.02064     6.08902
      C    5   -0.46213      1.99925     4.44914    0.01373     6.46213
      C    6   -0.45730      1.99932     4.44640    0.01159     6.45730
      C    7   -0.46211      1.99933     4.45109    0.01169     6.46211
      C    8   -0.45730      1.99932     4.44640    0.01159     6.45730
      C    9   -0.46213      1.99925     4.44914    0.01373     6.46213
      H   10    0.24377      0.00000     0.75357    0.00267     0.75623
      H   11    0.24715      0.00000     0.74987    0.00298     0.75285
      H   12    0.23212      0.00000     0.76165    0.00623     0.76788
      H   13    0.22902      0.00000     0.76919    0.00180     0.77098
      H   14    0.24822      0.00000     0.75012    0.00166     0.75178
      H   15    0.24285      0.00000     0.75598    0.00118     0.75715
      H   16    0.22937      0.00000     0.76868    0.00195     0.77063
      H   17    0.22902      0.00000     0.76919    0.00180     0.77098
      H   18    0.24822      0.00000     0.75012    0.00166     0.75178
      H   19    0.24715      0.00000     0.74987    0.00298     0.75285
      H   20    0.23212      0.00000     0.76165    0.00623     0.76788
 =======================================================================
   * Total *   -0.00000     17.99406    49.78511    0.22083    68.00000

 Normal termination of Gaussian 09 at Mon Oct  4 08:27:22 2021.
