 Gaussian 09, Revision A.02,

 -----------------------------------
 #p opt b3lyp/6-31G* scf=(xqc,tight)
 -----------------------------------

 ------------------
 CCCCCCN=C=O_conf_0
 ------------------
 Symbolic Z-matrix:
 Charge =  0 Multiplicity = 1

 SCF Done:  E(RB3LYP) =  -404.543854053     A.U. after   14 cycles
 SCF Done:  E(RB3LYP) =  -404.553692232     A.U. after   15 cycles
 SCF Done:  E(RB3LYP) =  -404.554491768     A.U. after   13 cycles
 SCF Done:  E(RB3LYP) =  -404.556909877     A.U. after   13 cycles
 SCF Done:  E(RB3LYP) =  -404.557535367     A.U. after   12 cycles
 SCF Done:  E(RB3LYP) =  -404.557852045     A.U. after   12 cycles
 SCF Done:  E(RB3LYP) =  -404.557898752     A.U. after   11 cycles
 SCF Done:  E(RB3LYP) =  -404.557916637     A.U. after   11 cycles
 SCF Done:  E(RB3LYP) =  -404.557919370     A.U. after    8 cycles
 SCF Done:  E(RB3LYP) =  -404.557921235     A.U. after    8 cycles
 SCF Done:  E(RB3LYP) =  -404.557924417     A.U. after    9 cycles
 SCF Done:  E(RB3LYP) =  -404.557928763     A.U. after   10 cycles
 SCF Done:  E(RB3LYP) =  -404.557932807     A.U. after   10 cycles
 SCF Done:  E(RB3LYP) =  -404.557934243     A.U. after    9 cycles
 SCF Done:  E(RB3LYP) =  -404.557934909     A.U. after    8 cycles
 SCF Done:  E(RB3LYP) =  -404.557935124     A.U. after    7 cycles
 Optimization completed.
    -- Stationary point found.
 Normal termination of Gaussian 09 at Mon Oct  4 04:13:31 2021.

 ----------------------------------------------------------------------
 #p freq b3lyp/6-31G* volume NMR pop=NPA density=current Geom=AllCheck
 Guess=Read
 ----------------------------------------------------------------------

 CCCCCCN=C=O_conf_0
 ------------------
 Redundant internal coordinates taken from checkpoint file:
 C7H13NO_bdce_conf_0.chk
 Charge =  0 Multiplicity = 1

 SCF Done:  E(RB3LYP) =  -404.557935124     A.U. after    1 cycles

  1  C    Isotropic =   175.6521   Anisotropy =    19.6072

  2  C    Isotropic =   165.6183   Anisotropy =    14.1452

  3  C    Isotropic =   161.2063   Anisotropy =    16.2188

  4  C    Isotropic =   166.5815   Anisotropy =    18.4670

  5  C    Isotropic =   158.0287   Anisotropy =    11.2790

  6  C    Isotropic =   149.4482   Anisotropy =    41.6902

  7  N    Isotropic =   227.0150   Anisotropy =   160.3946

  8  C    Isotropic =    76.9739   Anisotropy =   292.2838

  9  O    Isotropic =   205.6765   Anisotropy =   248.1214

 10  H    Isotropic =    31.1129   Anisotropy =     9.9485

 11  H    Isotropic =    30.9694   Anisotropy =     6.6298

 12  H    Isotropic =    31.4676   Anisotropy =     8.4068

 13  H    Isotropic =    30.6947   Anisotropy =     6.8488

 14  H    Isotropic =    30.5016   Anisotropy =     8.7683

 15  H    Isotropic =    30.3593   Anisotropy =     6.1612

 16  H    Isotropic =    31.1151   Anisotropy =     6.3921

 17  H    Isotropic =    30.4163   Anisotropy =     7.0679

 18  H    Isotropic =    30.6922   Anisotropy =     5.8156

 19  H    Isotropic =    30.8807   Anisotropy =     7.7450

 20  H    Isotropic =    30.3212   Anisotropy =     8.4448

 21  H    Isotropic =    28.5074   Anisotropy =     5.6382

 22  H    Isotropic =    29.4200   Anisotropy =     8.9961

  Exact polarizability:  83.146  -0.890  92.041   0.149  -1.779  65.526
 Approx polarizability:  97.925  -3.728 151.285   1.482  -5.371  94.250

                     1                      2                      3
                     A                      A                      A
 Frequencies --    26.2916                37.9052                49.6210
 Red. masses --     6.3708                 3.8382                 2.6835
 Frc consts  --     0.0026                 0.0032                 0.0039
 IR Inten    --     0.3470                 0.7778                 0.4791

                     4                      5                      6
                     A                      A                      A
 Frequencies --   111.9173               135.1719               197.0990
 Red. masses --     3.1274                 2.5105                 1.7745
 Frc consts  --     0.0231                 0.0270                 0.0406
 IR Inten    --     1.1783                 2.1530                 3.9059

                     7                      8                      9
                     A                      A                      A
 Frequencies --   237.8717               244.5031               296.6253
 Red. masses --     2.5466                 1.7672                 1.6259
 Frc consts  --     0.0849                 0.0622                 0.0843
 IR Inten    --     1.1623                 4.2808                 0.6221

                    10                     11                     12
                     A                      A                      A
 Frequencies --   366.6307               451.2253               510.6783
 Red. masses --     2.2726                 2.3054                 2.5341
 Frc consts  --     0.1800                 0.2766                 0.3894
 IR Inten    --     0.7422                 2.5924                 0.7543

                    13                     14                     15
                     A                      A                      A
 Frequencies --   563.7334               618.0342               733.9933
 Red. masses --    12.3767                 8.5289                 1.2933
 Frc consts  --     2.3174                 1.9194                 0.4105
 IR Inten    --    24.4684                25.5043                 2.0186

                    16                     17                     18
                     A                      A                      A
 Frequencies --   762.2814               810.9821               849.8154
 Red. masses --     1.3957                 2.2235                 1.7904
 Frc consts  --     0.4778                 0.8616                 0.7618
 IR Inten    --     3.6801                13.5355                 7.7815

                    19                     20                     21
                     A                      A                      A
 Frequencies --   881.2912               913.7014               962.8878
 Red. masses --     2.2812                 2.0885                 1.8478
 Frc consts  --     1.0439                 1.0273                 1.0094
 IR Inten    --     1.0517                15.9004                 1.8453

                    22                     23                     24
                     A                      A                      A
 Frequencies --   996.6586              1052.7371              1075.4732
 Red. masses --     1.5202                 1.4615                 2.3686
 Frc consts  --     0.8897                 0.9543                 1.6141
 IR Inten    --     6.6468                 1.2629                 0.9003

                    25                     26                     27
                     A                      A                      A
 Frequencies --  1094.7151              1142.5746              1150.5053
 Red. masses --     2.1583                 1.8613                 1.8212
 Frc consts  --     1.5239                 1.4317                 1.4203
 IR Inten    --     1.0661                 3.1317                 1.4200

                    28                     29                     30
                     A                      A                      A
 Frequencies --  1234.7751              1255.2886              1310.5728
 Red. masses --     1.4492                 1.1918                 1.2375
 Frc consts  --     1.3018                 1.1065                 1.2524
 IR Inten    --     1.3305                 5.1391                 3.7082

                    31                     32                     33
                     A                      A                      A
 Frequencies --  1315.3461              1352.7823              1361.6598
 Red. masses --     1.2116                 1.0966                 1.2360
 Frc consts  --     1.2351                 1.1823                 1.3502
 IR Inten    --     7.2381                 1.1353                 6.2165

                    34                     35                     36
                     A                      A                      A
 Frequencies --  1400.6991              1404.7732              1412.1766
 Red. masses --     1.4062                 1.3428                 1.3810
 Frc consts  --     1.6255                 1.5612                 1.6226
 IR Inten    --     8.2023                23.7705                13.5110

                    37                     38                     39
                     A                      A                      A
 Frequencies --  1427.4602              1444.6986              1492.6522
 Red. masses --     1.4510                 1.2689                 3.5568
 Frc consts  --     1.7420                 1.5604                 4.6690
 IR Inten    --     2.4446                 4.6670                10.1199

                    40                     41                     42
                     A                      A                      A
 Frequencies --  1509.6185              1515.0676              1519.4751
 Red. masses --     1.2553                 1.0816                 1.0659
 Frc consts  --     1.6855                 1.4628                 1.4500
 IR Inten    --     1.7701                 1.1184                 0.8453

                    43                     44                     45
                     A                      A                      A
 Frequencies --  1530.5672              1533.9251              1538.9279
 Red. masses --     1.0811                 1.0653                 1.0634
 Frc consts  --     1.4922                 1.4768                 1.4839
 IR Inten    --     2.2431                 4.6679                 7.4325

                    46                     47                     48
                     A                      A                      A
 Frequencies --  1541.3271              2384.7636              3016.4626
 Red. masses --     1.1134                12.3753                 1.0625
 Frc consts  --     1.5584                41.4665                 5.6963
 IR Inten    --    11.8834               879.6262                14.8229

                    49                     50                     51
                     A                      A                      A
 Frequencies --  3030.9424              3036.3087              3039.2110
 Red. masses --     1.0649                 1.0679                 1.0598
 Frc consts  --     5.7640                 5.8008                 5.7677
 IR Inten    --    17.2009                11.7731                37.7487

                    52                     53                     54
                     A                      A                      A
 Frequencies --  3044.7932              3051.5023              3060.5849
 Red. masses --     1.0386                 1.0845                 1.0733
 Frc consts  --     5.6730                 5.9499                 5.9235
 IR Inten    --    24.3779                20.8066                16.9991

                    55                     56                     57
                     A                      A                      A
 Frequencies --  3065.1252              3082.5261              3085.9016
 Red. masses --     1.1012                 1.0969                 1.1005
 Frc consts  --     6.0955                 6.1408                 6.1743
 IR Inten    --    25.5924                60.3674                66.0246

                    58                     59                     60
                     A                      A                      A
 Frequencies --  3107.3828              3109.1491              3116.7512
 Red. masses --     1.1030                 1.1014                 1.1019
 Frc consts  --     6.2752                 6.2730                 6.3065
 IR Inten    --    35.5257                46.2429                49.8340

 - Thermochemistry -
 -------------------
 Temperature   298.150 Kelvin.  Pressure   1.00000 Atm.
 Atom     1 has atomic number  6 and mass  12.00000

 Molecular mass:   127.09971 amu.
 Principal axes and moments of inertia in atomic units:
                           1         2         3
     Eigenvalues --   774.926972319.799382839.99731
           X            0.99937   0.03515  -0.00546
           Y           -0.03513   0.99937   0.00412
           Z            0.00560  -0.00393   0.99998
 This molecule is an asymmetric top.
 Rotational symmetry number  1.
 Warning -- assumption of classical behavior for rotation
           may cause significant error
 Rotational temperatures (Kelvin)      0.11177     0.03734     0.03050
 Rotational constants (GHZ):           2.32892     0.77797     0.63547
 Zero-point vibrational energy     512050.3 (Joules/Mol)
                                  122.38295 (Kcal/Mol)
 Warning -- explicit consideration of  14 degrees of freedom as
           vibrations may cause significant error
 Vibrational temperatures:     37.83    54.54    71.39   161.02   194.48
          (Kelvin)            283.58   342.24   351.79   426.78   527.50
                              649.21   734.75   811.09   889.21  1056.05
                             1096.75  1166.82  1222.69  1267.98  1314.61
                             1385.38  1433.97  1514.65  1547.36  1575.05
                             1643.91  1655.32  1776.56  1806.08  1885.62
                             1892.49  1946.35  1959.12  2015.29  2021.15
                             2031.80  2053.79  2078.60  2147.59  2172.00
                             2179.84  2186.18  2202.14  2206.97  2214.17
                             2217.62  3431.14  4340.01  4360.84  4368.57
                             4372.74  4380.77  4390.43  4403.49  4410.03
                             4435.06  4439.92  4470.83  4473.37  4484.30

 Zero-point correction=                           0.195030 (Hartree/Particle)
 Thermal correction to Energy=                    0.205748
 Thermal correction to Enthalpy=                  0.206692
 Thermal correction to Gibbs Free Energy=         0.156571
 Sum of electronic and zero-point Energies=           -404.362905
 Sum of electronic and thermal Energies=              -404.352187
 Sum of electronic and thermal Enthalpies=            -404.351243
 Sum of electronic and thermal Free Energies=         -404.401364

                     E (Thermal)             CV                S
                      KCal/Mol        Cal/Mol-Kelvin    Cal/Mol-Kelvin
 Total                  129.109             36.899            105.488
 Electronic               0.000              0.000              0.000
 Translational            0.889              2.981             40.433
 Rotational               0.889              2.981             30.013
 Vibrational            127.331             30.937             35.042
 Vibration     1          0.593              1.985              6.091
 Vibration     2          0.594              1.982              5.366
 Vibration     3          0.595              1.978              4.832
 Vibration     4          0.607              1.940              3.235
 Vibration     5          0.613              1.918              2.871
 Vibration     6          0.636              1.844              2.160
 Vibration     7          0.656              1.783              1.819
 Vibration     8          0.660              1.772              1.770
 Vibration     9          0.690              1.680              1.436
 Vibration    10          0.740              1.541              1.094
 Vibration    11          0.810              1.358              0.792
 Vibration    12          0.866              1.226              0.632
 Vibration    13          0.920              1.110              0.516
 Vibration    14          0.978              0.994              0.420

 Optimization completed.
    -- Stationary point found.
 Normal termination of Gaussian 09 at Mon Oct  4 04:55:46 2021.
 Gaussian 09:  AM64L-G09RevA.02 11-Jun-2009

 ----------------------------------------------------------------------
 #p TD(NStates=10, Root=1) b3lyp/6-31G* volume pop=NPA density=current
 Geom=AllCheck Guess=Read
 ----------------------------------------------------------------------

 CCCCCCN=C=O_conf_0
 ------------------
 Redundant internal coordinates taken from checkpoint file:
 C7H13NO_bdce_conf_0.chk
 Charge =  0 Multiplicity = 1

                         Standard orientation:
 ---------------------------------------------------------------------
 Center     Atomic      Atomic             Coordinates (Angstroms)
 Number     Number       Type             X           Y           Z
 ---------------------------------------------------------------------
      1          6           0        3.617546    0.448720   -0.387933
      2          6           0        2.429875    0.867016    0.487327
      3          6           0        1.361570   -0.223481    0.678875
      4          6           0        0.602732   -0.596100   -0.604063
      5          6           0       -0.452277   -1.699038   -0.426428
      6          6           0       -1.629329   -1.350229    0.498114
      7          7           0       -2.432984   -0.252021    0.001146
      8          6           0       -2.411016    0.951362   -0.067651
      9          8           0       -2.520385    2.121364   -0.199138
     10          1           0        4.366063    1.247415   -0.439625
     11          1           0        3.311656    0.221174   -1.415204
     12          1           0        4.111346   -0.443569    0.017413
     13          1           0        1.957327    1.763151    0.061006
     14          1           0        2.805307    1.163765    1.475651
     15          1           0        0.649231    0.124146    1.439866
     16          1           0        1.835543   -1.125643    1.094825
     17          1           0        1.315004   -0.936163   -1.366038
     18          1           0        0.127851    0.303424   -1.020864
     19          1           0        0.023094   -2.601203   -0.015961
     20          1           0       -0.858607   -1.975998   -1.407050
     21          1           0       -1.276104   -1.117013    1.509862
     22          1           0       -2.288349   -2.219763    0.581746
 ---------------------------------------------------------------------

 SCF Done:  E(RB3LYP) =  -404.557935124     A.U. after    1 cycles

 Excitation energies and oscillator strengths:

 Excited State   1:      Singlet-A      6.4102 eV  193.42 nm  f=0.0010  <S**2>=0.000
      35 -> 36         0.69469
 This state for optimization and/or second-order correction.
 Total Energy, E(TD-HF/TD-KS) =  -404.322365869
 Copying the excited state density for this state as the 1-particle RhoCI density.

 Excited State   2:      Singlet-A      7.2282 eV  171.53 nm  f=0.0051  <S**2>=0.000
      34 -> 36         0.55550
      35 -> 37        -0.41828

 Excited State   3:      Singlet-A      7.8915 eV  157.11 nm  f=0.0032  <S**2>=0.000
      34 -> 37         0.67647

 Excited State   4:      Singlet-A      8.5271 eV  145.40 nm  f=0.0173  <S**2>=0.000
      33 -> 36         0.57009
      34 -> 36        -0.12312
      35 -> 37        -0.18343
      35 -> 38        -0.30189
      35 -> 40         0.10140

 Excited State   5:      Singlet-A      8.6004 eV  144.16 nm  f=0.0064  <S**2>=0.000
      33 -> 36         0.36712
      35 -> 37         0.11653
      35 -> 38         0.55107
      35 -> 40        -0.17542

 Excited State   6:      Singlet-A      8.7947 eV  140.98 nm  f=0.0100  <S**2>=0.000
      29 -> 36         0.10835
      31 -> 36        -0.12127
      32 -> 36         0.65419
      34 -> 38        -0.13110

 Excited State   7:      Singlet-A      8.8756 eV  139.69 nm  f=0.0005  <S**2>=0.000
      30 -> 36         0.11478
      31 -> 36         0.66776
      34 -> 38        -0.11365

 Excited State   8:      Singlet-A      8.9312 eV  138.82 nm  f=0.0231  <S**2>=0.000
      31 -> 36         0.13008
      32 -> 36         0.20214
      34 -> 36         0.12680
      34 -> 38         0.56323
      34 -> 40        -0.19848
      35 -> 37         0.16500

 Excited State   9:      Singlet-A      9.2167 eV  134.52 nm  f=0.0700  <S**2>=0.000
      34 -> 36         0.10202
      34 -> 38        -0.20230
      35 -> 37         0.21730
      35 -> 39         0.51090
      35 -> 41         0.29476
      35 -> 42         0.10947

 Excited State  10:      Singlet-A      9.3993 eV  131.91 nm  f=0.0864  <S**2>=0.000
      32 -> 37        -0.10452
      33 -> 37         0.10176
      34 -> 36        -0.16152
      34 -> 38         0.12776
      34 -> 39        -0.11473
      35 -> 37        -0.23894
      35 -> 38         0.18664
      35 -> 39         0.41014
      35 -> 40         0.15918
      35 -> 41        -0.27369

 The electronic state is 1-A.
 Alpha  occ. eigenvalues --  -19.18427 -14.35503 -10.31624 -10.24449 -10.19612
 Alpha  occ. eigenvalues --  -10.18726 -10.18525 -10.18329 -10.17529  -1.08623
 Alpha  occ. eigenvalues --   -0.94639  -0.81312  -0.77708  -0.72423  -0.67052
 Alpha  occ. eigenvalues --   -0.61130  -0.57264  -0.52394  -0.48896  -0.48626
 Alpha  occ. eigenvalues --   -0.46953  -0.44710  -0.44564  -0.43571  -0.41981
 Alpha  occ. eigenvalues --   -0.40586  -0.39351  -0.36831  -0.36598  -0.34964
 Alpha  occ. eigenvalues --   -0.32872  -0.32580  -0.31766  -0.28664  -0.27246
 Alpha virt. eigenvalues --    0.02560   0.06280   0.07990   0.10176   0.11102
 Alpha virt. eigenvalues --    0.11675   0.13423   0.14245   0.15848   0.16209
 Alpha virt. eigenvalues --    0.16527   0.17567   0.17773   0.19200   0.20498

 Mulliken atomic charges:
              1
     1  C   -0.444520
     2  C   -0.251842
     3  C   -0.249130
     4  C   -0.259930
     5  C   -0.282492
     6  C   -0.126413
     7  N   -0.279975
     8  C    0.375940
     9  O   -0.335900
    10  H    0.145105
    11  H    0.144801
    12  H    0.139867
    13  H    0.139176
    14  H    0.133688
    15  H    0.130264
    16  H    0.122739
    17  H    0.142428
    18  H    0.142021
    19  H    0.156541
    20  H    0.155529
    21  H    0.133969
    22  H    0.168134
 Sum of Mulliken atomic charges =  -0.00000

 Dipole moment (field-independent basis, Debye):
    X=              1.4921    Y=             -2.6976    Z=              0.3626  Tot=              3.1040
 Quadrupole moment (field-independent basis, Debye-Ang):
   XX=            -60.8837   YY=            -57.9365   ZZ=            -55.0003
   XY=              4.9390   XZ=             -1.8124   YZ=             -0.0565

 Summary of Natural Population Analysis:

                                       Natural Population
                Natural  -----------------------------------------------
    Atom  No    Charge         Core      Valence    Rydberg      Total
 -----------------------------------------------------------------------
      C    1   -0.67778      1.99946     4.67087    0.00745     6.67778
      C    2   -0.45439      1.99935     4.44437    0.01066     6.45439
      C    3   -0.45952      1.99933     4.44828    0.01191     6.45952
      C    4   -0.46404      1.99932     4.45245    0.01227     6.46404
      C    5   -0.45329      1.99928     4.44235    0.01167     6.45329
      C    6   -0.28789      1.99924     4.27166    0.01699     6.28789
      N    7   -0.30605      1.99926     5.27493    0.03186     7.30605
      C    8    0.46246      1.99937     3.48188    0.05629     5.53754
      O    9   -0.37856      1.99982     6.36210    0.01665     8.37856
      H   10    0.23384      0.00000     0.76534    0.00083     0.76616
      H   11    0.22250      0.00000     0.77660    0.00090     0.77750
      H   12    0.22281      0.00000     0.77604    0.00115     0.77719
      H   13    0.23071      0.00000     0.76752    0.00176     0.76929
      H   14    0.23461      0.00000     0.76401    0.00138     0.76539
      H   15    0.22589      0.00000     0.76831    0.00579     0.77411
      H   16    0.22151      0.00000     0.77651    0.00199     0.77849
      H   17    0.23843      0.00000     0.76006    0.00151     0.76157
      H   18    0.22993      0.00000     0.76598    0.00409     0.77007
      H   19    0.24954      0.00000     0.74907    0.00139     0.75046
      H   20    0.24528      0.00000     0.75130    0.00342     0.75472
      H   21    0.21341      0.00000     0.77356    0.01303     0.78659
      H   22    0.25061      0.00000     0.74721    0.00219     0.74939
 =======================================================================
   * Total *   -0.00000     17.99443    51.79040    0.21517    70.00000

 Normal termination of Gaussian 09 at Mon Oct  4 08:06:40 2021.
