 Gaussian 09, Revision A.02,

 -----------------------------------
 #p opt b3lyp/6-31G* scf=(xqc,tight)
 -----------------------------------

 -------------------------------
 Br[Mg]c1ccc(cc1)C(F)(F)F_conf_0
 -------------------------------
 Symbolic Z-matrix:
 Charge =  0 Multiplicity = 1

 SCF Done:  E(RB3LYP) =  -3340.53546743     A.U. after   14 cycles
 SCF Done:  E(RB3LYP) =  -3340.54903450     A.U. after   12 cycles
 SCF Done:  E(RB3LYP) =  -3340.55326048     A.U. after   11 cycles
 SCF Done:  E(RB3LYP) =  -3340.55355003     A.U. after   12 cycles
 SCF Done:  E(RB3LYP) =  -3340.54930661     A.U. after   14 cycles
 SCF Done:  E(RB3LYP) =  -3340.55367544     A.U. after   14 cycles
 SCF Done:  E(RB3LYP) =  -3340.55376544     A.U. after   10 cycles
 SCF Done:  E(RB3LYP) =  -3340.55376807     A.U. after    8 cycles
 SCF Done:  E(RB3LYP) =  -3340.55376817     A.U. after   14 cycles
 SCF Done:  E(RB3LYP) =  -3340.55376821     A.U. after   14 cycles
 Optimization completed.
    -- Stationary point found.
 Normal termination of Gaussian 09 at Sun Oct  3 14:58:53 2021.

 ----------------------------------------------------------------------
 #p freq b3lyp/6-31G* volume NMR pop=NPA density=current Geom=AllCheck
 Guess=Read
 ----------------------------------------------------------------------

 Br[Mg]c1ccc(cc1)C(F)(F)F_conf_0
 -------------------------------
 Redundant internal coordinates taken from checkpoint file:
 C7H4BrF3Mg_83e3_conf_0.chk
 Charge =  0 Multiplicity = 1

 SCF Done:  E(RB3LYP) =  -3340.55376821     A.U. after    1 cycles

  1  Br   Isotropic =  2949.5364   Anisotropy =   250.3028

  2  Mg   Isotropic =   518.8384   Anisotropy =   279.1823

  3  C    Isotropic =    46.8010   Anisotropy =   204.5086

  4  C    Isotropic =    55.6934   Anisotropy =   164.2063

  5  C    Isotropic =    71.5965   Anisotropy =   164.6965

  6  C    Isotropic =    62.2321   Anisotropy =   153.1255

  7  C    Isotropic =    69.8176   Anisotropy =   165.8775

  8  C    Isotropic =    55.4316   Anisotropy =   165.0019

  9  C    Isotropic =    62.9709   Anisotropy =    12.2149

 10  F    Isotropic =   285.0349   Anisotropy =   114.8217

 11  F    Isotropic =   255.8825   Anisotropy =   127.8346

 12  F    Isotropic =   255.8768   Anisotropy =   127.8359

 13  H    Isotropic =    24.6015   Anisotropy =     8.0094

 14  H    Isotropic =    24.9480   Anisotropy =     8.6722

 15  H    Isotropic =    24.8630   Anisotropy =     8.6533

 16  H    Isotropic =    24.5647   Anisotropy =     8.0227

  Exact polarizability: 172.496   0.238 103.064  -0.007   0.000  62.288
 Approx polarizability: 229.411   0.416 176.773  -0.007   0.000  93.974

 ******    1 imaginary frequencies (negative Signs) ******

                     1                      2                      3
                     A                      A                      A
 Frequencies --   -21.0905                31.4490                34.9326
 Red. masses --     6.0453                12.0831                11.2922
 Frc consts  --     0.0016                 0.0070                 0.0081
 IR Inten    --     0.0501                 1.9422                 4.0184

                     4                      5                      6
                     A                      A                      A
 Frequencies --   112.1972               148.6276               155.7321
 Red. masses --    14.3136                22.0986                16.1590
 Frc consts  --     0.1062                 0.2876                 0.2309
 IR Inten    --     7.3707                 1.9146                11.9007

                     7                      8                      9
                     A                      A                      A
 Frequencies --   201.0775               221.7809               347.7164
 Red. masses --    10.6360                 7.4166                 7.2513
 Frc consts  --     0.2534                 0.2149                 0.5166
 IR Inten    --    23.2984                16.0523                12.1019

                    10                     11                     12
                     A                      A                      A
 Frequencies --   353.8546               394.8536               398.1099
 Red. masses --    11.1198                 2.8900                 9.5311
 Frc consts  --     0.8203                 0.2655                 0.8900
 IR Inten    --    27.0263                 0.4238                 3.0743

                    13                     14                     15
                     A                      A                      A
 Frequencies --   490.4309               515.6075               573.5124
 Red. masses --     7.3927                15.4319                13.1298
 Frc consts  --     1.0476                 2.4172                 2.5444
 IR Inten    --     2.9176                76.5274                 0.3489

                    16                     17                     18
                     A                      A                      A
 Frequencies --   602.1777               647.7820               685.5275
 Red. masses --     4.6215                 7.1054                10.3594
 Frc consts  --     0.9874                 1.7567                 2.8684
 IR Inten    --    10.4176                 0.4142                46.2524

                    19                     20                     21
                     A                      A                      A
 Frequencies --   739.2155               781.1420               830.2381
 Red. masses --     3.5736                 9.8443                 1.5682
 Frc consts  --     1.1505                 3.5391                 0.6369
 IR Inten    --     1.1365                 0.0063                29.9649

                    22                     23                     24
                     A                      A                      A
 Frequencies --   867.6884               966.5721               976.9894
 Red. masses --     1.2517                 1.3370                 1.3180
 Frc consts  --     0.5552                 0.7360                 0.7412
 IR Inten    --     1.4292                 0.0712                 1.4214

                    25                     26                     27
                     A                      A                      A
 Frequencies --  1028.6497              1067.9402              1106.8407
 Red. masses --     5.3224                 7.7698                 2.3821
 Frc consts  --     3.3181                 5.2210                 1.7194
 IR Inten    --    29.7253               100.1050                41.3280

                    28                     29                     30
                     A                      A                      A
 Frequencies --  1128.9203              1183.6253              1212.7749
 Red. masses --     1.7687                12.7838                 5.4991
 Frc consts  --     1.3281                10.5521                 4.7654
 IR Inten    --    18.9725               253.3632               161.0909

                    31                     32                     33
                     A                      A                      A
 Frequencies --  1234.8237              1310.6355              1345.8262
 Red. masses --     1.1770                 5.9659                 5.2643
 Frc consts  --     1.0574                 6.0379                 5.6178
 IR Inten    --     8.9662                18.6594               337.3327

                    34                     35                     36
                     A                      A                      A
 Frequencies --  1362.0436              1424.6680              1541.5743
 Red. masses --     1.4425                 2.3141                 2.1586
 Frc consts  --     1.5767                 2.7673                 3.0225
 IR Inten    --     8.0225                28.0730                 6.1421

                    37                     38                     39
                     A                      A                      A
 Frequencies --  1608.8707              1652.9858              3151.7828
 Red. masses --     6.1633                 5.3710                 1.0888
 Frc consts  --     9.3995                 8.6465                 6.3725
 IR Inten    --     0.3436                 9.9175                 7.9346

                    40                     41                     42
                     A                      A                      A
 Frequencies --  3152.9643              3201.6078              3220.7910
 Red. masses --     1.0887                 1.0925                 1.0919
 Frc consts  --     6.3765                 6.5981                 6.6735
 IR Inten    --    27.0645                10.8309                 6.0220

 - Thermochemistry -
 -------------------
 Temperature   298.150 Kelvin.  Pressure   1.00000 Atm.
 Atom     1 has atomic number 35 and mass  78.91834

 Molecular mass:   247.92989 amu.
 Principal axes and moments of inertia in atomic units:
                           1         2         3
     Eigenvalues --   636.24156********************
           X            1.00000   0.00000  -0.00000
           Y           -0.00000   1.00000   0.00000
           Z            0.00000  -0.00000   1.00000
 This molecule is an asymmetric top.
 Rotational symmetry number  1.
 Warning -- assumption of classical behavior for rotation
           may cause significant error
 Rotational temperatures (Kelvin)      0.13613     0.00698     0.00681
 Rotational constants (GHZ):           2.83657     0.14552     0.14189
    1 imaginary frequencies ignored.
 Zero-point vibrational energy     251302.8 (Joules/Mol)
                                   60.06280 (Kcal/Mol)
 Warning -- explicit consideration of  15 degrees of freedom as
           vibrations may cause significant error
 Vibrational temperatures:     45.25    50.26   161.43   213.84   224.06
          (Kelvin)            289.31   319.09   500.29   509.12   568.11
                              572.79   705.62   741.84   825.16   866.40
                              932.01   986.32  1063.56  1123.89  1194.53
                             1248.41  1390.68  1405.67  1480.00  1536.53
                             1592.49  1624.26  1702.97  1744.91  1776.63
                             1885.71  1936.34  1959.67  2049.78  2217.98
                             2314.80  2378.27  4534.71  4536.41  4606.39
                             4633.99

 Zero-point correction=                           0.095716 (Hartree/Particle)
 Thermal correction to Energy=                    0.106342
 Thermal correction to Enthalpy=                  0.107286
 Thermal correction to Gibbs Free Energy=         0.055968
 Sum of electronic and zero-point Energies=          -3340.458052
 Sum of electronic and thermal Energies=             -3340.447426
 Sum of electronic and thermal Enthalpies=           -3340.446482
 Sum of electronic and thermal Free Energies=        -3340.497800

                     E (Thermal)             CV                S
                      KCal/Mol        Cal/Mol-Kelvin    Cal/Mol-Kelvin
 Total                   66.731             37.641            108.009
 Electronic               0.000              0.000              0.000
 Translational            0.889              2.981             42.425
 Rotational               0.889              2.981             32.973
 Vibrational             64.953             31.680             32.611
 Vibration     1          0.594              1.983              5.736
 Vibration     2          0.594              1.983              5.528
 Vibration     3          0.607              1.939              3.231
 Vibration     4          0.618              1.904              2.690
 Vibration     5          0.620              1.896              2.601
 Vibration     6          0.638              1.838              2.123
 Vibration     7          0.648              1.808              1.945
 Vibration     8          0.725              1.580              1.177
 Vibration     9          0.730              1.567              1.149
 Vibration    10          0.762              1.481              0.982
 Vibration    11          0.764              1.474              0.970
 Vibration    12          0.846              1.271              0.682
 Vibration    13          0.871              1.215              0.620
 Vibration    14          0.930              1.089              0.498
 Vibration    15          0.960              1.027              0.446

 Normal termination of Gaussian 09 at Sun Oct  3 16:17:47 2021.
 Gaussian 09:  AM64L-G09RevA.02 11-Jun-2009

 ----------------------------------------------------------------------
 #p TD(NStates=10, Root=1) b3lyp/6-31G* volume pop=NPA density=current
 Geom=AllCheck Guess=Read
 ----------------------------------------------------------------------

 Br[Mg]c1ccc(cc1)C(F)(F)F_conf_0
 -------------------------------
 Redundant internal coordinates taken from checkpoint file:
 C7H4BrF3Mg_83e3_conf_0.chk
 Charge =  0 Multiplicity = 1

                         Standard orientation:
 ---------------------------------------------------------------------
 Center     Atomic      Atomic             Coordinates (Angstroms)
 Number     Number       Type             X           Y           Z
 ---------------------------------------------------------------------
      1         35           0        4.699689   -0.004070    0.000379
      2         12           0        2.371106   -0.001618   -0.000930
      3          6           0        0.292116    0.005322   -0.000573
      4          6           0       -0.442287    1.208003   -0.000435
      5          6           0       -1.839127    1.227255   -0.000181
      6          6           0       -2.545227    0.024984   -0.000055
      7          6           0       -1.852471   -1.189477   -0.000190
      8          6           0       -0.458920   -1.190450   -0.000444
      9          6           0       -4.049376    0.003147    0.000236
     10          9           0       -4.583747    1.242941    0.000250
     11          9           0       -4.536431   -0.645201   -1.084189
     12          9           0       -4.536016   -0.645046    1.084940
     13          1           0        0.071660    2.168567   -0.000537
     14          1           0       -2.377042    2.169491   -0.000084
     15          1           0       -2.403170   -2.126236   -0.000102
     16          1           0        0.043679   -2.156892   -0.000553
 ---------------------------------------------------------------------

 SCF Done:  E(RB3LYP) =  -3340.55376821     A.U. after    1 cycles

 Excitation energies and oscillator strengths:

 Excited State   1:      Singlet-A      4.9015 eV  252.95 nm  f=0.0068  <S**2>=0.000
      59 -> 61        -0.46865
      60 -> 61         0.51789
 This state for optimization and/or second-order correction.
 Total Energy, E(TD-HF/TD-KS) =  -3340.37364219
 Copying the excited state density for this state as the 1-particle RhoCI density.

 Excited State   2:      Singlet-A      4.9594 eV  250.00 nm  f=0.0014  <S**2>=0.000
      59 -> 61         0.51635
      60 -> 61         0.47800

 Excited State   3:      Singlet-A      5.1385 eV  241.29 nm  f=0.0080  <S**2>=0.000
      59 -> 62         0.23383
      59 -> 64         0.32017
      60 -> 62         0.56455
      60 -> 64        -0.14354

 Excited State   4:      Singlet-A      5.3399 eV  232.18 nm  f=0.0013  <S**2>=0.000
      57 -> 61        -0.43000
      58 -> 62         0.54752
      59 -> 61         0.10121

 Excited State   5:      Singlet-A      5.3937 eV  229.87 nm  f=0.0375  <S**2>=0.000
      56 -> 61         0.70382

 Excited State   6:      Singlet-A      5.4367 eV  228.05 nm  f=0.0686  <S**2>=0.000
      57 -> 61         0.55650
      58 -> 62         0.42984

 Excited State   7:      Singlet-A      5.4984 eV  225.49 nm  f=0.5953  <S**2>=0.000
      58 -> 61         0.60955
      59 -> 62        -0.28479
      60 -> 62         0.12581

 Excited State   8:      Singlet-A      5.6084 eV  221.07 nm  f=0.0390  <S**2>=0.000
      58 -> 61         0.28394
      59 -> 62         0.54871
      59 -> 65         0.15584
      60 -> 62        -0.23358
      60 -> 64        -0.13906

 Excited State   9:      Singlet-A      5.7812 eV  214.46 nm  f=0.0003  <S**2>=0.000
      59 -> 63        -0.43026
      60 -> 63         0.55756

 Excited State  10:      Singlet-A      5.8340 eV  212.52 nm  f=0.0009  <S**2>=0.000
      59 -> 63         0.55639
      60 -> 63         0.43289

 The electronic state is 1-A.
 Alpha  occ. eigenvalues -- -482.88747 -61.84976 -56.36709 -56.36569 -56.36564
 Alpha  occ. eigenvalues --  -46.85746 -24.72518 -24.71826 -24.71826 -10.43029
 Alpha  occ. eigenvalues --  -10.21679 -10.20746 -10.20702 -10.20610 -10.20586
 Alpha  occ. eigenvalues --  -10.18877  -8.55889  -6.50641  -6.50234  -6.50225
 Alpha  occ. eigenvalues --   -3.14526  -2.62318  -2.62191  -2.62184  -2.61860
 Alpha  occ. eigenvalues --   -2.61860  -1.89162  -1.89105  -1.88504  -1.29796
 Alpha  occ. eigenvalues --   -1.21312  -1.20737  -0.86878  -0.77635  -0.75859
 Alpha  occ. eigenvalues --   -0.73383  -0.68873  -0.62191  -0.61353  -0.57576
 Alpha  occ. eigenvalues --   -0.57321  -0.56449  -0.47375  -0.46364  -0.45899
 Alpha  occ. eigenvalues --   -0.45342  -0.44720  -0.43499  -0.41777  -0.40960
 Alpha  occ. eigenvalues --   -0.39439  -0.37495  -0.37411  -0.35469  -0.33754
 Alpha  occ. eigenvalues --   -0.28883  -0.28859  -0.27836  -0.26667  -0.26438
 Alpha virt. eigenvalues --   -0.05447  -0.04560  -0.02397  -0.01526   0.00195
 Alpha virt. eigenvalues --    0.06012   0.10859   0.11436   0.11674   0.11802
 Alpha virt. eigenvalues --    0.14274   0.15553   0.15903   0.16546   0.19678

 Mulliken atomic charges:
              1
     1  Br  -0.242165
     2  Mg  -0.074927
     3  C    0.036226
     4  C   -0.129835
     5  C   -0.140732
     6  C    0.017819
     7  C   -0.099735
     8  C   -0.184373
     9  C    0.813174
    10  F   -0.255137
    11  F   -0.250925
    12  F   -0.250927
    13  H    0.194730
    14  H    0.189800
    15  H    0.201794
    16  H    0.175213
 Sum of Mulliken atomic charges =  -0.00000

 Dipole moment (field-independent basis, Debye):
    X=            -10.8533    Y=              0.1003    Z=              0.0090  Tot=             10.8537
 Quadrupole moment (field-independent basis, Debye-Ang):
   XX=           -127.3354   YY=            -78.0586   ZZ=            -87.5565
   XY=              0.2005   XZ=              0.0234   YZ=              0.0006

 Summary of Natural Population Analysis:

                                       Natural Population
                Natural  -----------------------------------------------
    Atom  No    Charge         Core      Valence    Rydberg      Total
 -----------------------------------------------------------------------
     Br    1   -0.63413     27.99972     7.62392    0.01050    35.63413
     Mg    2    0.61919      9.99839     1.35432    0.02810    11.38081
      C    3   -0.34409      1.99931     4.31080    0.03398     6.34409
      C    4   -0.06940      1.99916     4.05531    0.01493     6.06940
      C    5   -0.25548      1.99908     4.24118    0.01522     6.25548
      C    6   -0.03837      1.99886     4.02351    0.01600     6.03837
      C    7   -0.10399      1.99904     4.09028    0.01467     6.10399
      C    8   -0.27370      1.99919     4.25835    0.01616     6.27370
      C    9    1.11625      1.99910     2.81516    0.06949     4.88375
      F   10   -0.35018      1.99993     7.34387    0.00638     9.35018
      F   11   -0.34600      1.99993     7.33965    0.00642     9.34600
      F   12   -0.34600      1.99993     7.33965    0.00642     9.34600
      H   13    0.24378      0.00000     0.75338    0.00283     0.75622
      H   14    0.26901      0.00000     0.72943    0.00156     0.73099
      H   15    0.26182      0.00000     0.73661    0.00157     0.73818
      H   16    0.25126      0.00000     0.74630    0.00243     0.74874
 =======================================================================
   * Total *   -0.00003     57.99165    61.76171    0.24667   120.00003

 Normal termination of Gaussian 09 at Sun Oct  3 20:15:07 2021.
