 Gaussian 09, Revision A.02,

 -----------------------------------
 #p opt b3lyp/6-31G* scf=(xqc,tight)
 -----------------------------------

 ----------------------
 c1ccc2c(c1)ocn2_conf_0
 ----------------------
 Symbolic Z-matrix:
 Charge =  0 Multiplicity = 1

 SCF Done:  E(RB3LYP) =  -399.721484506     A.U. after   15 cycles
 SCF Done:  E(RB3LYP) =  -399.723099905     A.U. after   16 cycles
 SCF Done:  E(RB3LYP) =  -399.723217363     A.U. after   15 cycles
 SCF Done:  E(RB3LYP) =  -399.723229980     A.U. after   15 cycles
 SCF Done:  E(RB3LYP) =  -399.723232067     A.U. after   15 cycles
 Optimization completed.
    -- Stationary point found.
 Normal termination of Gaussian 09 at Mon Oct  4 11:07:41 2021.

 ----------------------------------------------------------------------
 #p freq b3lyp/6-31G* volume NMR pop=NPA density=current Geom=AllCheck
 Guess=Read
 ----------------------------------------------------------------------

 c1ccc2c(c1)ocn2_conf_0
 ----------------------
 Redundant internal coordinates taken from checkpoint file:
 C7H5NO_bd5a_conf_0.chk
 Charge =  0 Multiplicity = 1

 SCF Done:  E(RB3LYP) =  -399.723232067     A.U. after    1 cycles

  1  C    Isotropic =    71.1069   Anisotropy =   161.2811

  2  C    Isotropic =    71.7182   Anisotropy =   161.4521

  3  C    Isotropic =    74.2530   Anisotropy =   152.3766

  4  C    Isotropic =    55.3054   Anisotropy =   131.4526

  5  C    Isotropic =    46.5904   Anisotropy =   122.9691

  6  C    Isotropic =    85.2622   Anisotropy =   141.5948

  7  O    Isotropic =    62.3319   Anisotropy =   216.7110

  8  C    Isotropic =    45.7853   Anisotropy =    72.3068

  9  N    Isotropic =     6.1477   Anisotropy =   344.0920

 10  H    Isotropic =    24.9256   Anisotropy =     4.8087

 11  H    Isotropic =    24.8997   Anisotropy =     4.8263

 12  H    Isotropic =    24.5491   Anisotropy =     4.8573

 13  H    Isotropic =    24.9144   Anisotropy =     4.7635

 14  H    Isotropic =    24.6273   Anisotropy =     4.3920

  Exact polarizability: 108.551  -0.047  80.715  -0.002  -0.001  28.421
 Approx polarizability: 178.224   3.710 150.166  -0.006  -0.005  44.288

                     1                      2                      3
                     A                      A                      A
 Frequencies --   228.4676               262.8442               421.0447
 Red. masses --     4.3081                 6.1394                 5.2863
 Frc consts  --     0.1325                 0.2499                 0.5522
 IR Inten    --     2.1213                 0.6411                 3.2165

                     4                      5                      6
                     A                      A                      A
 Frequencies --   432.2058               548.4891               586.8859
 Red. masses --     2.9696                 7.5578                 4.0208
 Frc consts  --     0.3268                 1.3396                 0.8160
 IR Inten    --     4.6536                 0.8191                 0.0692

                     7                      8                      9
                     A                      A                      A
 Frequencies --   633.1246               634.9630               763.5594
 Red. masses --     7.0257                 3.4046                 1.4320
 Frc consts  --     1.6593                 0.8088                 0.4919
 IR Inten    --     1.2282                 5.7248                55.0825

                    10                     11                     12
                     A                      A                      A
 Frequencies --   776.0601               798.4982               858.6308
 Red. masses --     3.4243                 5.3471                 1.4170
 Frc consts  --     1.2151                 2.0087                 0.6155
 IR Inten    --    11.5623                 8.8314                 4.1494

                    13                     14                     15
                     A                      A                      A
 Frequencies --   876.3160               881.8762               936.9902
 Red. masses --     1.4739                 5.8321                11.1380
 Frc consts  --     0.6669                 2.6723                 5.7614
 IR Inten    --     1.7871                 8.5641                 6.4920

                    16                     17                     18
                     A                      A                      A
 Frequencies --   941.6057               980.5570              1032.8098
 Red. masses --     1.3529                 1.2440                 2.0303
 Frc consts  --     0.7067                 0.7047                 1.2760
 IR Inten    --     3.1002                 0.0054                 3.1674

                    19                     20                     21
                     A                      A                      A
 Frequencies --  1103.0552              1133.0793              1179.4104
 Red. masses --     7.0537                 1.8081                 1.2080
 Frc consts  --     5.0566                 1.3677                 0.9900
 IR Inten    --    61.1483                21.4616                 2.9065

                    22                     23                     24
                     A                      A                      A
 Frequencies --  1190.2135              1271.8020              1313.7652
 Red. masses --     1.8057                 4.0236                 1.4757
 Frc consts  --     1.5071                 3.8345                 1.5007
 IR Inten    --     2.7192                38.9530                 0.0580

                    25                     26                     27
                     A                      A                      A
 Frequencies --  1340.4757              1398.7527              1495.9798
 Red. masses --     1.7739                 5.3736                 2.4941
 Frc consts  --     1.8780                 6.1944                 3.2887
 IR Inten    --     4.2260                 1.8936                32.2124

                    28                     29                     30
                     A                      A                      A
 Frequencies --  1524.3603              1580.3843              1654.7464
 Red. masses --     2.6529                 6.8383                 6.7992
 Frc consts  --     3.6320                10.0629                10.9691
 IR Inten    --     4.2530                48.7991                 2.3588

                    31                     32                     33
                     A                      A                      A
 Frequencies --  1673.7006              3193.6744              3207.8193
 Red. masses --     7.2731                 1.0865                 1.0909
 Frc consts  --    12.0040                 6.5292                 6.6141
 IR Inten    --     3.7084                 3.0387                14.3360

                    34                     35                     36
                     A                      A                      A
 Frequencies --  3223.3515              3227.9668              3291.2862
 Red. masses --     1.0942                 1.0954                 1.0985
 Frc consts  --     6.6983                 6.7247                 7.0111
 IR Inten    --    11.8924                 5.5421                 0.3297

 - Thermochemistry -
 -------------------
 Temperature   298.150 Kelvin.  Pressure   1.00000 Atm.
 Atom     1 has atomic number  6 and mass  12.00000

 Molecular mass:   119.03711 amu.
 Principal axes and moments of inertia in atomic units:
                           1         2         3
     Eigenvalues --   455.097691062.482691517.58036
           X            1.00000   0.00137  -0.00000
           Y           -0.00137   1.00000   0.00000
           Z            0.00000  -0.00000   1.00000
 This molecule is an asymmetric top.
 Rotational symmetry number  1.
 Warning -- assumption of classical behavior for rotation
           may cause significant error
 Rotational temperatures (Kelvin)      0.19032     0.08152     0.05707
 Rotational constants (GHZ):           3.96561     1.69861     1.18922
 Zero-point vibrational energy     278722.4 (Joules/Mol)
                                   66.61626 (Kcal/Mol)
 Warning -- explicit consideration of   6 degrees of freedom as
           vibrations may cause significant error
 Vibrational temperatures:    328.71   378.17   605.79   621.85   789.15
          (Kelvin)            844.40   910.92   913.57  1098.59  1116.58
                             1148.86  1235.38  1260.82  1268.82  1348.12
                             1354.76  1410.80  1485.98  1587.05  1630.25
                             1696.91  1712.45  1829.84  1890.21  1928.64
                             2012.49  2152.38  2193.21  2273.82  2380.81
                             2408.08  4594.98  4615.33  4637.68  4644.32
                             4735.42

 Zero-point correction=                           0.106160 (Hartree/Particle)
 Thermal correction to Energy=                    0.111929
 Thermal correction to Enthalpy=                  0.112873
 Thermal correction to Gibbs Free Energy=         0.076138
 Sum of electronic and zero-point Energies=           -399.617072
 Sum of electronic and thermal Energies=              -399.611303
 Sum of electronic and thermal Enthalpies=            -399.610359
 Sum of electronic and thermal Free Energies=         -399.647095

                     E (Thermal)             CV                S
                      KCal/Mol        Cal/Mol-Kelvin    Cal/Mol-Kelvin
 Total                   70.236             23.546             77.316
 Electronic               0.000              0.000              0.000
 Translational            0.889              2.981             40.238
 Rotational               0.889              2.981             28.086
 Vibrational             68.459             17.585              8.993
 Vibration     1          0.651              1.798              1.891
 Vibration     2          0.670              1.741              1.643
 Vibration     3          0.784              1.424              0.888
 Vibration     4          0.793              1.400              0.851
 Vibration     5          0.904              1.143              0.547
 Vibration     6          0.944              1.060              0.473

 Optimization completed.
    -- Stationary point found.
 Normal termination of Gaussian 09 at Mon Oct  4 11:42:02 2021.
 Gaussian 09:  AM64L-G09RevA.02 11-Jun-2009

 ----------------------------------------------------------------------
 #p TD(NStates=10, Root=1) b3lyp/6-31G* volume pop=NPA density=current
 Geom=AllCheck Guess=Read
 ----------------------------------------------------------------------

 c1ccc2c(c1)ocn2_conf_0
 ----------------------
 Redundant internal coordinates taken from checkpoint file:
 C7H5NO_bd5a_conf_0.chk
 Charge =  0 Multiplicity = 1

                         Standard orientation:
 ---------------------------------------------------------------------
 Center     Atomic      Atomic             Coordinates (Angstroms)
 Number     Number       Type             X           Y           Z
 ---------------------------------------------------------------------
      1          6           0        2.094767   -0.710166    0.000032
      2          6           0        2.107363    0.697741    0.000040
      3          6           0        0.927237    1.439792    0.000013
      4          6           0       -0.275802    0.729362   -0.000003
      5          6           0       -0.259950   -0.671823   -0.000016
      6          6           0        0.899808   -1.432842   -0.000010
      7          8           0       -1.567932   -1.099380   -0.000116
      8          6           0       -2.285751    0.067671    0.000273
      9          7           0       -1.607432    1.164036   -0.000178
     10          1           0        3.038024   -1.248713    0.000021
     11          1           0        3.062531    1.215030    0.000028
     12          1           0        0.932001    2.524982   -0.000033
     13          1           0        0.877916   -2.517348   -0.000047
     14          1           0       -3.361022   -0.045575    0.000222
 ---------------------------------------------------------------------

 SCF Done:  E(RB3LYP) =  -399.723232067     A.U. after    1 cycles

 Excitation energies and oscillator strengths:

 Excited State   1:      Singlet-A      5.1631 eV  240.14 nm  f=0.0377  <S**2>=0.000
      30 -> 32         0.52569
      30 -> 33         0.15922
      31 -> 32         0.28561
      31 -> 33        -0.33415
 This state for optimization and/or second-order correction.
 Total Energy, E(TD-HF/TD-KS) =  -399.533492278
 Copying the excited state density for this state as the 1-particle RhoCI density.

 Excited State   2:      Singlet-A      5.5260 eV  224.37 nm  f=0.1317  <S**2>=0.000
      30 -> 32        -0.28735
      30 -> 33         0.17767
      31 -> 32         0.59029
      31 -> 33         0.15131

 Excited State   3:      Singlet-A      5.9628 eV  207.93 nm  f=0.0021  <S**2>=0.000
      29 -> 32         0.69666

 Excited State   4:      Singlet-A      6.3848 eV  194.19 nm  f=0.1652  <S**2>=0.000
      30 -> 32         0.30329
      30 -> 34        -0.28940
      31 -> 33         0.51181
      31 -> 34        -0.21962

 Excited State   5:      Singlet-A      6.6965 eV  185.15 nm  f=0.1166  <S**2>=0.000
      28 -> 32         0.16558
      30 -> 33         0.48753
      30 -> 34        -0.20503
      31 -> 32        -0.12035
      31 -> 34         0.40641

 Excited State   6:      Singlet-A      7.0699 eV  175.37 nm  f=0.0001  <S**2>=0.000
      29 -> 33         0.69733

 Excited State   7:      Singlet-A      7.1476 eV  173.46 nm  f=0.4190  <S**2>=0.000
      28 -> 32        -0.27623
      30 -> 32        -0.13238
      30 -> 33         0.42010
      31 -> 32        -0.17385
      31 -> 33        -0.11383
      31 -> 34        -0.41349

 Excited State   8:      Singlet-A      7.2672 eV  170.61 nm  f=0.2057  <S**2>=0.000
      28 -> 32        -0.14641
      28 -> 33         0.19000
      30 -> 32         0.13576
      30 -> 33         0.10271
      30 -> 34         0.55827
      31 -> 32        -0.10867
      31 -> 33         0.26596
      31 -> 34         0.11715

 Excited State   9:      Singlet-A      7.6384 eV  162.32 nm  f=0.0078  <S**2>=0.000
      27 -> 32        -0.38297
      29 -> 34         0.57958

 Excited State  10:      Singlet-A      7.7962 eV  159.03 nm  f=0.0563  <S**2>=0.000
      26 -> 32        -0.13376
      28 -> 32         0.57545
      28 -> 33        -0.11006
      30 -> 34         0.17697
      31 -> 34        -0.26239

 The electronic state is 1-A.
 Alpha  occ. eigenvalues --  -19.22869 -14.33941 -10.28584 -10.25142 -10.22218
 Alpha  occ. eigenvalues --  -10.20513 -10.20084 -10.19954 -10.19678  -1.13195
 Alpha  occ. eigenvalues --   -0.93074  -0.85698  -0.75830  -0.75042  -0.64993
 Alpha  occ. eigenvalues --   -0.61866  -0.60198  -0.52499  -0.51402  -0.49213
 Alpha  occ. eigenvalues --   -0.47651  -0.45077  -0.42948  -0.41213  -0.37731
 Alpha  occ. eigenvalues --   -0.36022  -0.35955  -0.33288  -0.29429  -0.24871
 Alpha  occ. eigenvalues --   -0.24135
 Alpha virt. eigenvalues --   -0.02809   0.00491   0.03693   0.09018   0.12514
 Alpha virt. eigenvalues --    0.13576   0.16349   0.16790   0.17075   0.18309
 Alpha virt. eigenvalues --    0.20889   0.26316   0.27943   0.31704   0.32486

 Mulliken atomic charges:
              1
     1  C   -0.152435
     2  C   -0.130472
     3  C   -0.174948
     4  C    0.238447
     5  C    0.332778
     6  C   -0.179794
     7  O   -0.459120
     8  C    0.220541
     9  N   -0.463759
    10  H    0.141345
    11  H    0.150348
    12  H    0.152774
    13  H    0.153874
    14  H    0.170421
 Sum of Mulliken atomic charges =  -0.00000

 Dipole moment (field-independent basis, Debye):
    X=              1.5367    Y=             -1.0836    Z=              0.0003  Tot=              1.8803
 Quadrupole moment (field-independent basis, Debye-Ang):
   XX=            -43.7820   YY=            -50.7450   ZZ=            -52.7834
   XY=              2.8436   XZ=             -0.0010   YZ=              0.0002

 Summary of Natural Population Analysis:

                                       Natural Population
                Natural  -----------------------------------------------
    Atom  No    Charge         Core      Valence    Rydberg      Total
 -----------------------------------------------------------------------
      C    1   -0.24777      1.99918     4.23193    0.01666     6.24777
      C    2   -0.16269      1.99916     4.14730    0.01622     6.16269
      C    3   -0.25909      1.99905     4.24208    0.01796     6.25909
      C    4    0.10040      1.99895     3.87760    0.02305     5.89960
      C    5    0.32232      1.99872     3.65546    0.02349     5.67768
      C    6   -0.29146      1.99902     4.27426    0.01818     6.29146
      O    7   -0.47041      1.99976     6.45869    0.01197     8.47041
      C    8    0.30687      1.99937     3.65878    0.03498     5.69313
      N    9   -0.49051      1.99946     5.46807    0.02297     7.49051
      H   10    0.23872      0.00000     0.76054    0.00074     0.76128
      H   11    0.23715      0.00000     0.76207    0.00078     0.76285
      H   12    0.24732      0.00000     0.75160    0.00109     0.75268
      H   13    0.24923      0.00000     0.74975    0.00102     0.75077
      H   14    0.21991      0.00000     0.77952    0.00057     0.78009
 =======================================================================
   * Total *   -0.00000     17.99267    43.81766    0.18967    62.00000

 Normal termination of Gaussian 09 at Mon Oct  4 13:41:22 2021.
