 Gaussian 09, Revision A.02,

 -----------------------------------
 #p opt b3lyp/6-31G* scf=(xqc,tight)
 -----------------------------------

 ----------------------
 c1ccc2c(c1)scn2_conf_0
 ----------------------
 Symbolic Z-matrix:
 Charge =  0 Multiplicity = 1

 SCF Done:  E(RB3LYP) =  -722.696818279     A.U. after   16 cycles
 SCF Done:  E(RB3LYP) =  -722.699250298     A.U. after   16 cycles
 SCF Done:  E(RB3LYP) =  -722.699584818     A.U. after   16 cycles
 SCF Done:  E(RB3LYP) =  -722.699610058     A.U. after   17 cycles
 SCF Done:  E(RB3LYP) =  -722.699625216     A.U. after   15 cycles
 SCF Done:  E(RB3LYP) =  -722.699627952     A.U. after    9 cycles
 Optimization completed.
    -- Stationary point found.
 Normal termination of Gaussian 09 at Mon Oct  4 13:10:57 2021.

 ----------------------------------------------------------------------
 #p freq b3lyp/6-31G* volume NMR pop=NPA density=current Geom=AllCheck
 Guess=Read
 ----------------------------------------------------------------------

 c1ccc2c(c1)scn2_conf_0
 ----------------------
 Redundant internal coordinates taken from checkpoint file:
 C7H5NS_4d4f_conf_0.chk
 Charge =  0 Multiplicity = 1

 SCF Done:  E(RB3LYP) =  -722.699627952     A.U. after    1 cycles

  1  C    Isotropic =    71.0803   Anisotropy =   161.5541

  2  C    Isotropic =    70.5573   Anisotropy =   162.3297

  3  C    Isotropic =    71.0920   Anisotropy =   154.4899

  4  C    Isotropic =    45.2096   Anisotropy =   119.6139

  5  C    Isotropic =    54.9293   Anisotropy =   128.6763

  6  C    Isotropic =    74.4832   Anisotropy =   154.9637

  7  S    Isotropic =   295.5606   Anisotropy =   231.3654

  8  C    Isotropic =    41.6880   Anisotropy =   102.9579

  9  N    Isotropic =   -59.7078   Anisotropy =   416.0200

 10  H    Isotropic =    24.8650   Anisotropy =     4.9172

 11  H    Isotropic =    24.8072   Anisotropy =     4.7996

 12  H    Isotropic =    24.2354   Anisotropy =     5.4165

 13  H    Isotropic =    24.4374   Anisotropy =     7.0564

 14  H    Isotropic =    23.8997   Anisotropy =     5.9196

  Exact polarizability: 131.472   0.781  97.191  -0.001  -0.000  35.117
 Approx polarizability: 222.906   5.163 188.966  -0.002  -0.000  56.026

                     1                      2                      3
                     A                      A                      A
 Frequencies --   196.5689               214.2110               356.4952
 Red. masses --     5.8226                 4.2872                 6.6929
 Frc consts  --     0.1326                 0.1159                 0.5012
 IR Inten    --     1.4300                 1.3885                 2.4661

                     4                      5                      6
                     A                      A                      A
 Frequencies --   431.5114               495.3002               508.6121
 Red. masses --     3.1374                 4.8427                 8.1974
 Frc consts  --     0.3442                 0.7000                 1.2494
 IR Inten    --     4.8453                 0.0204                 0.4750

                     7                      8                      9
                     A                      A                      A
 Frequencies --   538.0665               598.9216               665.0779
 Red. masses --     8.2253                 4.4814                 9.3053
 Frc consts  --     1.4031                 0.9471                 2.4251
 IR Inten    --     0.7383                 0.1290                 6.1120

                    10                     11                     12
                     A                      A                      A
 Frequencies --   714.9103               740.1844               773.9938
 Red. masses --     6.8730                 2.6519                 1.5144
 Frc consts  --     2.0697                 0.8560                 0.5345
 IR Inten    --     3.7318                15.0494                33.7429

                    13                     14                     15
                     A                      A                      A
 Frequencies --   801.7018               831.1911               874.5930
 Red. masses --     5.9766                 1.2749                 1.4015
 Frc consts  --     2.2632                 0.5190                 0.6316
 IR Inten    --    26.2571                16.5955                 3.1168

                    16                     17                     18
                     A                      A                      A
 Frequencies --   881.8169               948.5616               987.6110
 Red. masses --     5.1291                 1.3531                 1.2627
 Frc consts  --     2.3499                 0.7173                 0.7256
 IR Inten    --    29.1369                 2.2321                 0.0030

                    19                     20                     21
                     A                      A                      A
 Frequencies --  1046.8546              1074.9375              1152.3682
 Red. masses --     2.1730                 4.9136                 1.5087
 Frc consts  --     1.4031                 3.3451                 1.1804
 IR Inten    --     3.8570                 9.1755                 2.2701

                    22                     23                     24
                     A                      A                      A
 Frequencies --  1191.9608              1233.6319              1302.8938
 Red. masses --     1.1783                 1.8799                 1.4839
 Frc consts  --     0.9864                 1.6856                 1.4841
 IR Inten    --     0.7438                 2.3503                 1.5338

                    25                     26                     27
                     A                      A                      A
 Frequencies --  1335.7879              1363.5355              1477.2944
 Red. masses --     1.8412                 7.0152                 2.4914
 Frc consts  --     1.9357                 7.6847                 3.2035
 IR Inten    --     8.2230                10.5310                22.5270

                    28                     29                     30
                     A                      A                      A
 Frequencies --  1503.1590              1548.2570              1614.0325
 Red. masses --     2.4873                 7.7903                 5.5886
 Frc consts  --     3.3113                11.0024                 8.5778
 IR Inten    --     6.7668                58.4615                 3.6979

                    31                     32                     33
                     A                      A                      A
 Frequencies --  1653.6970              3191.0864              3203.4121
 Red. masses --     6.1076                 1.0859                 1.0897
 Frc consts  --     9.8409                 6.5149                 6.5887
 IR Inten    --     2.9387                 1.5126                 9.3847

                    34                     35                     36
                     A                      A                      A
 Frequencies --  3213.5856              3222.1553              3237.7223
 Red. masses --     1.0947                 1.0957                 1.0941
 Frc consts  --     6.6605                 6.7022                 6.7576
 IR Inten    --    18.3999                10.7922                 1.9373

 - Thermochemistry -
 -------------------
 Temperature   298.150 Kelvin.  Pressure   1.00000 Atm.
 Atom     1 has atomic number  6 and mass  12.00000

 Molecular mass:   135.01427 amu.
 Principal axes and moments of inertia in atomic units:
                           1         2         3
     Eigenvalues --   571.809301357.101091928.91038
           X            0.99986  -0.01688  -0.00000
           Y            0.01688   0.99986  -0.00000
           Z            0.00000   0.00000   1.00000
 This molecule is an asymmetric top.
 Rotational symmetry number  1.
 Warning -- assumption of classical behavior for rotation
           may cause significant error
 Rotational temperatures (Kelvin)      0.15147     0.06382     0.04490
 Rotational constants (GHZ):           3.15619     1.32985     0.93563
 Zero-point vibrational energy     269911.6 (Joules/Mol)
                                   64.51043 (Kcal/Mol)
 Warning -- explicit consideration of   8 degrees of freedom as
           vibrations may cause significant error
 Vibrational temperatures:    282.82   308.20   512.92   620.85   712.63
          (Kelvin)            731.78   774.16   861.71   956.90  1028.60
                             1064.96  1113.60  1153.47  1195.90  1258.34
                             1268.74  1364.77  1420.95  1506.19  1546.59
                             1658.00  1714.96  1774.92  1874.57  1921.90
                             1961.82  2125.49  2162.71  2227.59  2322.23
                             2379.30  4591.26  4608.99  4623.63  4635.96
                             4658.35

 Zero-point correction=                           0.102804 (Hartree/Particle)
 Thermal correction to Energy=                    0.109105
 Thermal correction to Enthalpy=                  0.110049
 Thermal correction to Gibbs Free Energy=         0.071882
 Sum of electronic and zero-point Energies=           -722.596824
 Sum of electronic and thermal Energies=              -722.590523
 Sum of electronic and thermal Enthalpies=            -722.589578
 Sum of electronic and thermal Free Energies=         -722.627746

                     E (Thermal)             CV                S
                      KCal/Mol        Cal/Mol-Kelvin    Cal/Mol-Kelvin
 Total                   68.465             25.538             80.331
 Electronic               0.000              0.000              0.000
 Translational            0.889              2.981             40.613
 Rotational               0.889              2.981             28.794
 Vibrational             66.687             19.577             10.924
 Vibration     1          0.636              1.845              2.165
 Vibration     2          0.644              1.819              2.007
 Vibration     3          0.732              1.562              1.137
 Vibration     4          0.793              1.402              0.854
 Vibration     5          0.851              1.260              0.670
 Vibration     6          0.864              1.231              0.637
 Vibration     7          0.893              1.166              0.569
 Vibration     8          0.957              1.034              0.452

 Optimization completed.
    -- Stationary point found.
 Normal termination of Gaussian 09 at Mon Oct  4 13:39:17 2021.
 Gaussian 09:  AM64L-G09RevA.02 11-Jun-2009

 ----------------------------------------------------------------------
 #p TD(NStates=10, Root=1) b3lyp/6-31G* volume pop=NPA density=current
 Geom=AllCheck Guess=Read
 ----------------------------------------------------------------------

 c1ccc2c(c1)scn2_conf_0
 ----------------------
 Redundant internal coordinates taken from checkpoint file:
 C7H5NS_4d4f_conf_0.chk
 Charge =  0 Multiplicity = 1

                         Standard orientation:
 ---------------------------------------------------------------------
 Center     Atomic      Atomic             Coordinates (Angstroms)
 Number     Number       Type             X           Y           Z
 ---------------------------------------------------------------------
      1          6           0        2.290404   -0.886450    0.000005
      2          6           0        2.474929    0.507842   -0.000019
      3          6           0        1.386638    1.370778   -0.000003
      4          6           0        0.091838    0.831337    0.000002
      5          6           0       -0.080470   -0.574740    0.000024
      6          6           0        1.014532   -1.442925    0.000040
      7         16           0       -1.795704   -0.943583   -0.000039
      8          6           0       -2.110115    0.796744    0.000068
      9          7           0       -1.081355    1.575782   -0.000013
     10          1           0        3.156790   -1.541934   -0.000011
     11          1           0        3.482898    0.912684   -0.000051
     12          1           0        1.511449    2.448995   -0.000036
     13          1           0        0.878250   -2.520093    0.000066
     14          1           0       -3.135174    1.151691    0.000046
 ---------------------------------------------------------------------

 SCF Done:  E(RB3LYP) =  -722.699627952     A.U. after    1 cycles

 Excitation energies and oscillator strengths:

 Excited State   1:      Singlet-A      4.7763 eV  259.58 nm  f=0.0295  <S**2>=0.000
      34 -> 36        -0.26354
      34 -> 37         0.25012
      35 -> 36         0.57745
      35 -> 37         0.15799
 This state for optimization and/or second-order correction.
 Total Energy, E(TD-HF/TD-KS) =  -722.524101197
 Copying the excited state density for this state as the 1-particle RhoCI density.

 Excited State   2:      Singlet-A      5.1951 eV  238.66 nm  f=0.0921  <S**2>=0.000
      34 -> 36         0.55667
      35 -> 36         0.29929
      35 -> 37        -0.27148
      35 -> 39        -0.10843

 Excited State   3:      Singlet-A      5.2709 eV  235.22 nm  f=0.0007  <S**2>=0.000
      33 -> 36         0.69783

 Excited State   4:      Singlet-A      5.5690 eV  222.63 nm  f=0.0002  <S**2>=0.000
      34 -> 38        -0.17827
      35 -> 38         0.67371

 Excited State   5:      Singlet-A      5.8268 eV  212.78 nm  f=0.0000  <S**2>=0.000
      34 -> 38         0.68149
      35 -> 38         0.17941

 Excited State   6:      Singlet-A      5.8475 eV  212.03 nm  f=0.1046  <S**2>=0.000
      32 -> 36        -0.19471
      33 -> 38         0.12996
      34 -> 36         0.24953
      34 -> 37         0.39540
      34 -> 39        -0.20048
      35 -> 36        -0.14713
      35 -> 37         0.37945

 Excited State   7:      Singlet-A      6.0687 eV  204.30 nm  f=0.2410  <S**2>=0.000
      32 -> 37         0.10803
      33 -> 38        -0.12971
      34 -> 36         0.14237
      34 -> 37        -0.39404
      35 -> 36         0.12841
      35 -> 37         0.41894
      35 -> 39        -0.30155

 Excited State   8:      Singlet-A      6.4063 eV  193.53 nm  f=0.0001  <S**2>=0.000
      33 -> 37         0.70421

 Excited State   9:      Singlet-A      6.5119 eV  190.40 nm  f=0.0919  <S**2>=0.000
      32 -> 36         0.56276
      33 -> 38        -0.22779
      35 -> 37         0.18774
      35 -> 39         0.26328

 Excited State  10:      Singlet-A      6.8680 eV  180.52 nm  f=0.0872  <S**2>=0.000
      30 -> 36         0.11698
      32 -> 37         0.18253
      33 -> 38         0.38163
      34 -> 39         0.48642
      35 -> 37         0.11521
      35 -> 39         0.18439

 The electronic state is 1-A.
 Alpha  occ. eigenvalues --  -88.91473 -14.34276 -10.25969 -10.23002 -10.22691
 Alpha  occ. eigenvalues --  -10.20605 -10.19994 -10.19795 -10.19695  -7.97655
 Alpha  occ. eigenvalues --   -5.94052  -5.93718  -5.93319  -0.96765  -0.85357
 Alpha  occ. eigenvalues --   -0.80297  -0.74768  -0.73317  -0.63102  -0.60061
 Alpha  occ. eigenvalues --   -0.58401  -0.49378  -0.49152  -0.48320  -0.44281
 Alpha  occ. eigenvalues --   -0.42286  -0.41459  -0.39992  -0.37271  -0.34622
 Alpha  occ. eigenvalues --   -0.34415  -0.30489  -0.27923  -0.24440  -0.23746
 Alpha virt. eigenvalues --   -0.03677  -0.00786   0.00805   0.03206   0.08859
 Alpha virt. eigenvalues --    0.10894   0.13937   0.14212   0.15777   0.17308
 Alpha virt. eigenvalues --    0.17917   0.21268   0.23883   0.26211   0.30436

 Mulliken atomic charges:
              1
     1  C   -0.137757
     2  C   -0.129523
     3  C   -0.133201
     4  C    0.275919
     5  C   -0.143231
     6  C   -0.158784
     7  S    0.250254
     8  C   -0.186995
     9  N   -0.413630
    10  H    0.136110
    11  H    0.151761
    12  H    0.161179
    13  H    0.157961
    14  H    0.169938
 Sum of Mulliken atomic charges =   0.00000

 Dipole moment (field-independent basis, Debye):
    X=              1.7134    Y=             -1.4129    Z=             -0.0000  Tot=              2.2208
 Quadrupole moment (field-independent basis, Debye-Ang):
   XX=            -49.9719   YY=            -57.6877   ZZ=            -61.2124
   XY=              1.7193   XZ=             -0.0001   YZ=             -0.0001

 Summary of Natural Population Analysis:

                                       Natural Population
                Natural  -----------------------------------------------
    Atom  No    Charge         Core      Valence    Rydberg      Total
 -----------------------------------------------------------------------
      C    1   -0.29687      1.99915     4.28143    0.01628     6.29687
      C    2   -0.16813      1.99914     4.15377    0.01522     6.16813
      C    3   -0.18216      1.99903     4.16699    0.01614     6.18216
      C    4    0.11035      1.99892     3.86687    0.02386     5.88965
      C    5   -0.25832      1.99879     4.24136    0.01817     6.25832
      C    6   -0.17229      1.99898     4.15561    0.01770     6.17229
      S    7    0.43233      9.99903     5.52187    0.04678    15.56767
      C    8   -0.22903      1.99935     4.20221    0.02747     6.22903
      N    9   -0.44831      1.99939     5.42481    0.02410     7.44831
      H   10    0.24003      0.00000     0.75923    0.00074     0.75997
      H   11    0.24026      0.00000     0.75896    0.00077     0.75974
      H   12    0.25089      0.00000     0.74786    0.00124     0.74911
      H   13    0.24517      0.00000     0.75387    0.00097     0.75483
      H   14    0.23605      0.00000     0.76304    0.00091     0.76395
 =======================================================================
   * Total *   -0.00000     25.99178    43.79789    0.21033    70.00000

 Normal termination of Gaussian 09 at Mon Oct  4 15:03:57 2021.
