 Gaussian 09, Revision A.02,

 -----------------------------------
 #p opt b3lyp/6-31G* scf=(xqc,tight)
 -----------------------------------

 ------------------------
 FC(Oc1ccccc1)(F)F_conf_0
 ------------------------
 Symbolic Z-matrix:
 Charge =  0 Multiplicity = 1

 SCF Done:  E(RB3LYP) =  -644.499034343     A.U. after   14 cycles
 SCF Done:  E(RB3LYP) =  -644.503542370     A.U. after   12 cycles
 SCF Done:  E(RB3LYP) =  -644.504055077     A.U. after   12 cycles
 SCF Done:  E(RB3LYP) =  -644.504270850     A.U. after   11 cycles
 SCF Done:  E(RB3LYP) =  -644.504294600     A.U. after    8 cycles
 SCF Done:  E(RB3LYP) =  -644.504296538     A.U. after    8 cycles
 Optimization completed.
    -- Stationary point found.
 Normal termination of Gaussian 09 at Thu Sep 30 09:57:54 2021.

 ----------------------------------------------------------------------
 #p freq b3lyp/6-31G* volume NMR pop=NPA density=current Geom=AllCheck
 Guess=Read
 ----------------------------------------------------------------------

 FC(Oc1ccccc1)(F)F_conf_0
 ------------------------
 Redundant internal coordinates taken from checkpoint file:
 C7H5F3O_c1d1_conf_0.chk
 Charge =  0 Multiplicity = 1

 SCF Done:  E(RB3LYP) =  -644.504296538     A.U. after    1 cycles

  1  F    Isotropic =   264.0143   Anisotropy =   155.6943

  2  C    Isotropic =    66.0098   Anisotropy =     7.6722

  3  O    Isotropic =   177.0478   Anisotropy =    48.1992

  4  C    Isotropic =    45.4444   Anisotropy =   106.7137

  5  C    Isotropic =    77.3754   Anisotropy =   141.8138

  6  C    Isotropic =    66.7047   Anisotropy =   166.4157

  7  C    Isotropic =    72.1724   Anisotropy =   164.5165

  8  C    Isotropic =    66.9412   Anisotropy =   166.0880

  9  C    Isotropic =    79.8296   Anisotropy =   147.5340

 10  F    Isotropic =   258.7158   Anisotropy =   157.2434

 11  F    Isotropic =   251.3334   Anisotropy =   157.7696

 12  H    Isotropic =    25.3432   Anisotropy =     6.3628

 13  H    Isotropic =    24.9341   Anisotropy =     4.3694

 14  H    Isotropic =    25.1419   Anisotropy =     3.9568

 15  H    Isotropic =    24.9408   Anisotropy =     4.9209

 16  H    Isotropic =    25.0526   Anisotropy =     9.1872

  Exact polarizability:  98.908   0.754  80.252   4.562  -0.096  33.997
 Approx polarizability: 146.829   2.141 136.653   9.420   0.363  51.798

                     1                      2                      3
                     A                      A                      A
 Frequencies --    11.5346                74.7085               142.2484
 Red. masses --     5.8371                 9.8855                 8.1161
 Frc consts  --     0.0005                 0.0325                 0.0968
 IR Inten    --     0.1596                 0.1678                 0.6409

                     4                      5                      6
                     A                      A                      A
 Frequencies --   230.8511               323.4148               345.8886
 Red. masses --     5.4183                 6.1198                11.8430
 Frc consts  --     0.1701                 0.3771                 0.8348
 IR Inten    --     0.1357                 2.4300                 2.2015

                     7                      8                      9
                     A                      A                      A
 Frequencies --   420.9043               431.0052               501.6286
 Red. masses --     3.0848                12.4107                 4.9729
 Frc consts  --     0.3220                 1.3583                 0.7373
 IR Inten    --     0.0649                 0.5193                 1.4599

                    10                     11                     12
                     A                      A                      A
 Frequencies --   524.3780               606.0105               622.0710
 Red. masses --     5.9451                14.9347                 7.5275
 Frc consts  --     0.9632                 3.2315                 1.7163
 IR Inten    --     2.6271                 2.1569                 4.1131

                    13                     14                     15
                     A                      A                      A
 Frequencies --   637.6540               689.3522               703.2867
 Red. masses --     8.3772                 6.8980                 2.8543
 Frc consts  --     2.0069                 1.9313                 0.8318
 IR Inten    --     8.6646                 0.7047                15.1426

                    16                     17                     18
                     A                      A                      A
 Frequencies --   768.2184               814.1934               840.4248
 Red. masses --     1.5928                 7.7772                 1.2510
 Frc consts  --     0.5538                 3.0376                 0.5206
 IR Inten    --    49.5840                11.0332                 0.5032

                    19                     20                     21
                     A                      A                      A
 Frequencies --   912.7456               937.4515               964.4920
 Red. masses --     1.4059                 9.8172                 1.3328
 Frc consts  --     0.6901                 5.0832                 0.7305
 IR Inten    --     3.9283                10.4620                 0.2272

                    22                     23                     24
                     A                      A                      A
 Frequencies --   990.9665              1020.2545              1057.4493
 Red. masses --     1.2429                 6.2228                 2.0693
 Frc consts  --     0.7191                 3.8164                 1.3633
 IR Inten    --     0.0622                 3.0504                 2.9330

                    25                     26                     27
                     A                      A                      A
 Frequencies --  1114.6603              1191.9267              1198.3867
 Red. masses --     1.5172                 1.1105                 2.4299
 Frc consts  --     1.1107                 0.9295                 2.0561
 IR Inten    --     9.2621                 1.9640               217.2951

                    28                     29                     30
                     A                      A                      A
 Frequencies --  1215.7048              1247.7552              1250.2129
 Red. masses --     1.9188                 4.1845                 8.9135
 Frc consts  --     1.6709                 3.8384                 8.2085
 IR Inten    --   136.2342                26.6237               452.0863

                    31                     32                     33
                     A                      A                      A
 Frequencies --  1302.8704              1354.7149              1371.0581
 Red. masses --     9.8578                 3.2215                 1.8463
 Frc consts  --     9.8590                 3.4834                 2.0449
 IR Inten    --   749.7085                68.0901                12.7148

                    34                     35                     36
                     A                      A                      A
 Frequencies --  1507.8768              1545.3126              1653.6403
 Red. masses --     2.3104                 2.2288                 5.9007
 Frc consts  --     3.0950                 3.1359                 9.5069
 IR Inten    --     1.2130                67.5701                19.7869

                    37                     38                     39
                     A                      A                      A
 Frequencies --  1664.0434              3192.0563              3201.1079
 Red. masses --     5.9401                 1.0857                 1.0901
 Frc consts  --     9.6912                 6.5177                 6.5814
 IR Inten    --    16.4883                 0.0854                13.9426

                    40                     41                     42
                     A                      A                      A
 Frequencies --  3214.1757              3224.7691              3249.8415
 Red. masses --     1.0946                 1.0952                 1.0926
 Frc consts  --     6.6625                 6.7104                 6.7987
 IR Inten    --    21.3457                 4.0249                 0.6319

 - Thermochemistry -
 -------------------
 Temperature   298.150 Kelvin.  Pressure   1.00000 Atm.
 Atom     1 has atomic number  9 and mass  18.99840

 Molecular mass:   162.02925 amu.
 Principal axes and moments of inertia in atomic units:
                           1         2         3
     Eigenvalues --   644.150232678.976752995.82006
           X            1.00000   0.00032   0.00268
           Y           -0.00032   1.00000  -0.00012
           Z           -0.00268   0.00012   1.00000
 This molecule is an asymmetric top.
 Rotational symmetry number  1.
 Warning -- assumption of classical behavior for rotation
           may cause significant error
 Rotational temperatures (Kelvin)      0.13446     0.03233     0.02891
 Rotational constants (GHZ):           2.80174     0.67367     0.60242
 Zero-point vibrational energy     288726.2 (Joules/Mol)
                                   69.00721 (Kcal/Mol)
 Warning -- explicit consideration of  11 degrees of freedom as
           vibrations may cause significant error
 Vibrational temperatures:     16.60   107.49   204.66   332.14   465.32
          (Kelvin)            497.66   605.59   620.12   721.73   754.46
                              871.91   895.02   917.44   991.82  1011.87
                             1105.29  1171.44  1209.18  1313.24  1348.78
                             1387.69  1425.78  1467.92  1521.43  1603.75
                             1714.91  1724.21  1749.13  1795.24  1798.78
                             1874.54  1949.13  1972.64  2169.50  2223.36
                             2379.22  2394.18  4592.65  4605.67  4624.48
                             4639.72  4675.79

 Zero-point correction=                           0.109970 (Hartree/Particle)
 Thermal correction to Energy=                    0.118722
 Thermal correction to Enthalpy=                  0.119666
 Thermal correction to Gibbs Free Energy=         0.073817
 Sum of electronic and zero-point Energies=           -644.394327
 Sum of electronic and thermal Energies=              -644.385575
 Sum of electronic and thermal Enthalpies=            -644.384630
 Sum of electronic and thermal Free Energies=         -644.430479

                     E (Thermal)             CV                S
                      KCal/Mol        Cal/Mol-Kelvin    Cal/Mol-Kelvin
 Total                   74.499             32.900             96.497
 Electronic               0.000              0.000              0.000
 Translational            0.889              2.981             41.157
 Rotational               0.889              2.981             30.026
 Vibrational             72.722             26.939             25.315
 Vibration     1          0.593              1.987              7.727
 Vibration     2          0.599              1.966              4.025
 Vibration     3          0.616              1.911              2.773
 Vibration     4          0.653              1.794              1.872
 Vibration     5          0.708              1.629              1.293
 Vibration     6          0.724              1.584              1.185
 Vibration     7          0.783              1.425              0.889
 Vibration     8          0.792              1.403              0.855
 Vibration     9          0.857              1.246              0.654
 Vibration    10          0.879              1.196              0.600
 Vibration    11          0.965              1.019              0.439

 Normal termination of Gaussian 09 at Thu Sep 30 10:34:48 2021.
 Gaussian 09:  AM64L-G09RevA.02 11-Jun-2009

 ----------------------------------------------------------------------
 #p TD(NStates=10, Root=1) b3lyp/6-31G* volume pop=NPA density=current
 Geom=AllCheck Guess=Read
 ----------------------------------------------------------------------

 FC(Oc1ccccc1)(F)F_conf_0
 ------------------------
 Redundant internal coordinates taken from checkpoint file:
 C7H5F3O_c1d1_conf_0.chk
 Charge =  0 Multiplicity = 1

                         Standard orientation:
 ---------------------------------------------------------------------
 Center     Atomic      Atomic             Coordinates (Angstroms)
 Number     Number       Type             X           Y           Z
 ---------------------------------------------------------------------
      1          9           0       -1.738068    0.427695    1.282977
      2          6           0       -1.856056   -0.033244    0.024617
      3          8           0       -0.801312   -0.792083   -0.354885
      4          6           0        0.512027   -0.337724   -0.177850
      5          6           0        1.465448   -1.348942   -0.076232
      6          6           0        2.809599   -1.007453    0.060806
      7          6           0        3.194585    0.334289    0.103973
      8          6           0        2.225397    1.332079    0.001299
      9          6           0        0.874877    1.008269   -0.147946
     10          9           0       -2.947532   -0.794331   -0.054081
     11          9           0       -2.039820    1.040327   -0.776679
     12          1           0        1.140818   -2.383884   -0.105518
     13          1           0        3.554791   -1.793983    0.139263
     14          1           0        4.241772    0.599506    0.215454
     15          1           0        2.515158    2.378725    0.030347
     16          1           0        0.131472    1.789446   -0.242422
 ---------------------------------------------------------------------

 SCF Done:  E(RB3LYP) =  -644.504296538     A.U. after    1 cycles

 Excitation energies and oscillator strengths:

 Excited State   1:      Singlet-A      5.4048 eV  229.40 nm  f=0.0075  <S**2>=0.000
      40 -> 43        -0.41407
      41 -> 42         0.57275
 This state for optimization and/or second-order correction.
 Total Energy, E(TD-HF/TD-KS) =  -644.305675289
 Copying the excited state density for this state as the 1-particle RhoCI density.

 Excited State   2:      Singlet-A      6.1631 eV  201.17 nm  f=0.0309  <S**2>=0.000
      40 -> 42         0.41284
      41 -> 43         0.57059

 Excited State   3:      Singlet-A      7.1530 eV  173.33 nm  f=0.6062  <S**2>=0.000
      40 -> 42         0.51356
      40 -> 43         0.23529
      41 -> 42         0.17219
      41 -> 43        -0.36356

 Excited State   4:      Singlet-A      7.1824 eV  172.62 nm  f=0.4541  <S**2>=0.000
      39 -> 42        -0.13810
      40 -> 42        -0.23549
      40 -> 43         0.50333
      41 -> 42         0.36577
      41 -> 43         0.17583

 Excited State   5:      Singlet-A      7.7836 eV  159.29 nm  f=0.0007  <S**2>=0.000
      41 -> 44         0.70357

 Excited State   6:      Singlet-A      7.8923 eV  157.10 nm  f=0.0251  <S**2>=0.000
      38 -> 42         0.37408
      39 -> 42         0.58407

 Excited State   7:      Singlet-A      7.9956 eV  155.07 nm  f=0.0121  <S**2>=0.000
      38 -> 43         0.36682
      39 -> 43         0.58844

 Excited State   8:      Singlet-A      8.1711 eV  151.73 nm  f=0.0002  <S**2>=0.000
      40 -> 44         0.70302

 Excited State   9:      Singlet-A      8.3853 eV  147.86 nm  f=0.0034  <S**2>=0.000
      37 -> 42         0.67217
      38 -> 42         0.15433

 Excited State  10:      Singlet-A      8.5572 eV  144.89 nm  f=0.0589  <S**2>=0.000
      37 -> 42        -0.17475
      38 -> 42         0.55338
      39 -> 42        -0.35100
      40 -> 47         0.11453

 The electronic state is 1-A.
 Alpha  occ. eigenvalues --  -24.73809 -24.73665 -24.73524 -19.21712 -10.48908
 Alpha  occ. eigenvalues --  -10.26918 -10.20466 -10.20432 -10.20398 -10.20241
 Alpha  occ. eigenvalues --  -10.19899  -1.32645  -1.23327  -1.22779  -1.10570
 Alpha  occ. eigenvalues --   -0.86781  -0.77554  -0.76087  -0.70137  -0.64568
 Alpha  occ. eigenvalues --   -0.62934  -0.60461  -0.59780  -0.57659  -0.51863
 Alpha  occ. eigenvalues --   -0.48666  -0.47499  -0.46762  -0.46133  -0.45261
 Alpha  occ. eigenvalues --   -0.44504  -0.43679  -0.42599  -0.40986  -0.40884
 Alpha  occ. eigenvalues --   -0.39128  -0.37370  -0.35928  -0.34721  -0.26394
 Alpha  occ. eigenvalues --   -0.24863
 Alpha virt. eigenvalues --   -0.01392  -0.00720   0.07816   0.13502   0.13728
 Alpha virt. eigenvalues --    0.14619   0.16412   0.16776   0.17860   0.18753
 Alpha virt. eigenvalues --    0.19669   0.21369   0.26755   0.28408   0.29143

 Mulliken atomic charges:
              1
     1  F   -0.258329
     2  C    0.981446
     3  O   -0.504770
     4  C    0.324367
     5  C   -0.168965
     6  C   -0.155476
     7  C   -0.110172
     8  C   -0.159993
     9  C   -0.167590
    10  F   -0.245029
    11  F   -0.265603
    12  H    0.150898
    13  H    0.137896
    14  H    0.143190
    15  H    0.139843
    16  H    0.158286
 Sum of Mulliken atomic charges =   0.00000

 Dipole moment (field-independent basis, Debye):
    X=              1.5196    Y=              0.1647    Z=              0.0767  Tot=              1.5304
 Quadrupole moment (field-independent basis, Debye-Ang):
   XX=            -56.6804   YY=            -56.5269   ZZ=            -62.9327
   XY=             -0.1715   XZ=              0.4776   YZ=             -0.2432

 Summary of Natural Population Analysis:

                                       Natural Population
                Natural  -----------------------------------------------
    Atom  No    Charge         Core      Valence    Rydberg      Total
 -----------------------------------------------------------------------
      F    1   -0.35548      1.99992     7.34894    0.00663     9.35548
      C    2    1.34638      1.99968     2.57031    0.08363     4.65362
      O    3   -0.52440      1.99966     6.51355    0.01119     8.52440
      C    4    0.30791      1.99872     3.67013    0.02324     5.69209
      C    5   -0.27106      1.99905     4.25260    0.01940     6.27106
      C    6   -0.25832      1.99915     4.24047    0.01870     6.25832
      C    7   -0.18448      1.99913     4.16852    0.01683     6.18448
      C    8   -0.24626      1.99916     4.22821    0.01889     6.24626
      C    9   -0.30394      1.99904     4.28680    0.01811     6.30394
      F   10   -0.34422      1.99992     7.33748    0.00683     9.34422
      F   11   -0.36347      1.99992     7.35697    0.00657     9.36347
      H   12    0.24573      0.00000     0.75318    0.00109     0.75427
      H   13    0.23515      0.00000     0.76405    0.00080     0.76485
      H   14    0.23444      0.00000     0.76475    0.00081     0.76556
      H   15    0.23540      0.00000     0.76378    0.00082     0.76460
      H   16    0.24663      0.00000     0.75163    0.00174     0.75337
 =======================================================================
   * Total *    0.00000     21.99336    59.77135    0.23529    82.00000

 Normal termination of Gaussian 09 at Thu Sep 30 12:19:04 2021.
