 Gaussian 09, Revision A.02,

 -----------------------------------
 #p opt b3lyp/6-31G* scf=(xqc,tight)
 -----------------------------------

 ------------------------------
 OB(c1ccc(cc1)C(F)(F)F)O_conf_0
 ------------------------------
 Symbolic Z-matrix:
 Charge =  0 Multiplicity = 1

 SCF Done:  E(RB3LYP) =  -745.252714523     A.U. after   14 cycles
 SCF Done:  E(RB3LYP) =  -745.265191391     A.U. after   12 cycles
 SCF Done:  E(RB3LYP) =  -745.268322777     A.U. after   12 cycles
 SCF Done:  E(RB3LYP) =  -745.274641144     A.U. after   14 cycles
 SCF Done:  E(RB3LYP) =  -745.279349951     A.U. after   14 cycles
 SCF Done:  E(RB3LYP) =  -745.280049674     A.U. after   12 cycles
 SCF Done:  E(RB3LYP) =  -745.285882040     A.U. after   12 cycles
 SCF Done:  E(RB3LYP) =  -745.294240292     A.U. after   12 cycles
 SCF Done:  E(RB3LYP) =  -745.296391877     A.U. after   15 cycles
 SCF Done:  E(RB3LYP) =  -745.296660648     A.U. after   12 cycles
 SCF Done:  E(RB3LYP) =  -745.296754562     A.U. after   11 cycles
 SCF Done:  E(RB3LYP) =  -745.296983293     A.U. after   15 cycles
 SCF Done:  E(RB3LYP) =  -745.296987623     A.U. after    8 cycles
 Optimization completed.
    -- Stationary point found.
 Normal termination of Gaussian 09 at Mon Oct  4 14:56:22 2021.

 ----------------------------------------------------------------------
 #p freq b3lyp/6-31G* volume NMR pop=NPA density=current Geom=AllCheck
 Guess=Read
 ----------------------------------------------------------------------

 OB(c1ccc(cc1)C(F)(F)F)O_conf_0
 ------------------------------
 Redundant internal coordinates taken from checkpoint file:
 C7H6BF3O2_cdae_conf_0.chk
 Charge =  0 Multiplicity = 1

 SCF Done:  E(RB3LYP) =  -745.296987623     A.U. after    1 cycles

  1  O    Isotropic =   226.3048   Anisotropy =    58.5866

  2  B    Isotropic =    85.7932   Anisotropy =    16.8074

  3  C    Isotropic =    62.2338   Anisotropy =   198.0936

  4  C    Isotropic =    60.6102   Anisotropy =   179.3627

  5  C    Isotropic =    71.7641   Anisotropy =   164.9597

  6  C    Isotropic =    60.9812   Anisotropy =   152.7706

  7  C    Isotropic =    70.0679   Anisotropy =   166.1509

  8  C    Isotropic =    60.3325   Anisotropy =   179.9302

  9  C    Isotropic =    62.7430   Anisotropy =    12.9115

 10  F    Isotropic =   284.3384   Anisotropy =   115.3680

 11  F    Isotropic =   255.8128   Anisotropy =   127.8943

 12  F    Isotropic =   255.6357   Anisotropy =   127.9167

 13  O    Isotropic =   226.1700   Anisotropy =    58.4412

 14  H    Isotropic =    29.2693   Anisotropy =    13.1740

 15  H    Isotropic =    24.1312   Anisotropy =     8.5771

 16  H    Isotropic =    24.7550   Anisotropy =     8.3232

 17  H    Isotropic =    24.6863   Anisotropy =     8.2609

 18  H    Isotropic =    24.1005   Anisotropy =     8.6088

 19  H    Isotropic =    29.2651   Anisotropy =    13.1687

  Exact polarizability: 128.864   0.235  92.388   0.005   0.001  41.003
 Approx polarizability: 180.038   0.420 160.245   0.011   0.001  63.223

 ******    1 imaginary frequencies (negative Signs) ******

                     1                      2                      3
                     A                      A                      A
 Frequencies --   -19.8123                53.9575                66.2656
 Red. masses --     8.0656                 6.5698                 7.3967
 Frc consts  --     0.0019                 0.0113                 0.0191
 IR Inten    --     0.0140                 0.0083                 0.8050

                     4                      5                      6
                     A                      A                      A
 Frequencies --   119.1502               180.9173               209.6041
 Red. masses --     7.5625                 7.2490                 7.2900
 Frc consts  --     0.0633                 0.1398                 0.1887
 IR Inten    --     0.7408                 4.9064                 3.8691

                     7                      8                      9
                     A                      A                      A
 Frequencies --   248.8338               338.7673               385.0330
 Red. masses --    10.6139                 5.4747                11.1400
 Frc consts  --     0.3872                 0.3702                 0.9730
 IR Inten    --     0.1871                10.2857                 5.4456

                    10                     11                     12
                     A                      A                      A
 Frequencies --   397.2588               420.6448               420.9476
 Red. masses --     1.4828                 5.7837                 1.6241
 Frc consts  --     0.1379                 0.6030                 0.1696
 IR Inten    --     0.1578                36.4355                 0.3025

                    13                     14                     15
                     A                      A                      A
 Frequencies --   441.3406               475.6082               541.0441
 Red. masses --     6.4007                 4.2355                 1.6132
 Frc consts  --     0.7346                 0.5645                 0.2782
 IR Inten    --     1.8599                24.3768               148.4093

                    16                     17                     18
                     A                      A                      A
 Frequencies --   575.3367               582.5960               598.4581
 Red. masses --    11.4620                 3.9649                 3.7413
 Frc consts  --     2.2354                 0.7929                 0.7895
 IR Inten    --     0.1482                14.5018                28.0072

                    19                     20                     21
                     A                      A                      A
 Frequencies --   649.7101               652.2154               715.8540
 Red. masses --     7.1219                 4.1762                 8.7098
 Frc consts  --     1.7713                 1.0467                 2.6297
 IR Inten    --     0.0211                83.0067                26.8915

                    22                     23                     24
                     A                      A                      A
 Frequencies --   765.0770               796.1885               855.7665
 Red. masses --     4.8342                 8.0086                 1.5154
 Frc consts  --     1.6672                 2.9912                 0.6539
 IR Inten    --     1.3953                 0.4102                25.8813

                    25                     26                     27
                     A                      A                      A
 Frequencies --   872.6599               945.7929               985.1037
 Red. masses --     1.3028                 1.1017                 1.3207
 Frc consts  --     0.5845                 0.5806                 0.7551
 IR Inten    --    11.0596               187.9228                 0.1377

                    28                     29                     30
                     A                      A                      A
 Frequencies --   993.0728              1012.9128              1042.8217
 Red. masses --     1.3219                 3.2117                 3.3115
 Frc consts  --     0.7681                 1.9415                 2.1218
 IR Inten    --     0.1728               213.9247                 0.0436

                    31                     32                     33
                     A                      A                      A
 Frequencies --  1089.1875              1136.2464              1137.6366
 Red. masses --     4.4730                 1.6145                 2.0546
 Frc consts  --     3.1265                 1.2281                 1.5667
 IR Inten    --   111.0071                36.3767                 2.8489

                    34                     35                     36
                     A                      A                      A
 Frequencies --  1182.5142              1211.7380              1224.0694
 Red. masses --    12.7970                 5.1956                 1.1677
 Frc consts  --    10.5432                 4.4948                 1.0309
 IR Inten    --   257.3143               162.6347                 5.3411

                    37                     38                     39
                     A                      A                      A
 Frequencies --  1335.4696              1343.1964              1356.7919
 Red. masses --     3.3901                 3.8584                 1.9821
 Frc consts  --     3.5623                 4.1014                 2.1499
 IR Inten    --    44.9203               399.4661                25.5801

                    40                     41                     42
                     A                      A                      A
 Frequencies --  1392.8375              1406.0225              1451.2960
 Red. masses --     3.7788                 5.7431                 3.3411
 Frc consts  --     4.3192                 6.6893                 4.1462
 IR Inten    --   168.7457               171.5619               162.5364

                    43                     44                     45
                     A                      A                      A
 Frequencies --  1565.0663              1623.3794              1676.4185
 Red. masses --     2.5498                 6.6888                 5.7035
 Frc consts  --     3.6797                10.3857                 9.4439
 IR Inten    --    29.6487                 1.6433                 2.6716

                    46                     47                     48
                     A                      A                      A
 Frequencies --  3199.5481              3206.0308              3215.3585
 Red. masses --     1.0876                 1.0885                 1.0944
 Frc consts  --     6.5601                 6.5918                 6.6662
 IR Inten    --     3.2126                 4.2307                10.3105

                    49                     50                     51
                     A                      A                      A
 Frequencies --  3228.2430              3783.7757              3788.0566
 Red. masses --     1.0933                 1.0671                 1.0651
 Frc consts  --     6.7134                 9.0015                 9.0047
 IR Inten    --     5.3821                 7.4505                51.8247

 - Thermochemistry -
 -------------------
 Temperature   298.150 Kelvin.  Pressure   1.00000 Atm.
 Atom     1 has atomic number  8 and mass  15.99491

 Molecular mass:   190.04129 amu.
 Principal axes and moments of inertia in atomic units:
                           1         2         3
     Eigenvalues --   815.593665062.837695559.15203
           X            1.00000  -0.00007   0.00000
           Y            0.00007   1.00000   0.00001
           Z           -0.00000  -0.00001   1.00000
 This molecule is an asymmetric top.
 Rotational symmetry number  1.
 Warning -- assumption of classical behavior for rotation
           may cause significant error
 Rotational temperatures (Kelvin)      0.10620     0.01711     0.01558
 Rotational constants (GHZ):           2.21279     0.35647     0.32464
    1 imaginary frequencies ignored.
 Zero-point vibrational energy     340312.6 (Joules/Mol)
                                   81.33666 (Kcal/Mol)
 Warning -- explicit consideration of  17 degrees of freedom as
           vibrations may cause significant error
 Vibrational temperatures:     77.63    95.34   171.43   260.30   301.57
          (Kelvin)            358.02   487.41   553.98   571.57   605.21
                              605.65   634.99   684.29   778.44   827.78
                              838.22   861.05   934.79   938.39  1029.95
                             1100.77  1145.54  1231.26  1255.56  1360.78
                             1417.34  1428.81  1457.35  1500.39  1567.10
                             1634.80  1636.80  1701.37  1743.42  1761.16
                             1921.44  1932.56  1952.12  2003.98  2022.95
                             2088.09  2251.78  2335.68  2411.99  4603.43
                             4612.76  4626.18  4644.72  5444.00  5450.16

 Zero-point correction=                           0.129618 (Hartree/Particle)
 Thermal correction to Energy=                    0.140237
 Thermal correction to Enthalpy=                  0.141182
 Thermal correction to Gibbs Free Energy=         0.092471
 Sum of electronic and zero-point Energies=           -745.167369
 Sum of electronic and thermal Energies=              -745.156750
 Sum of electronic and thermal Enthalpies=            -745.155806
 Sum of electronic and thermal Free Energies=         -745.204516

                     E (Thermal)             CV                S
                      KCal/Mol        Cal/Mol-Kelvin    Cal/Mol-Kelvin
 Total                   88.000             41.015            102.520
 Electronic               0.000              0.000              0.000
 Translational            0.889              2.981             41.632
 Rotational               0.889              2.981             31.507
 Vibrational             86.223             35.053             29.381
 Vibration     1          0.596              1.976              4.667
 Vibration     2          0.598              1.970              4.261
 Vibration     3          0.609              1.933              3.114
 Vibration     4          0.630              1.866              2.319
 Vibration     5          0.642              1.826              2.047
 Vibration     6          0.662              1.765              1.739
 Vibration     7          0.719              1.598              1.218
 Vibration     8          0.754              1.502              1.019
 Vibration     9          0.764              1.476              0.973
 Vibration    10          0.783              1.425              0.890
 Vibration    11          0.783              1.425              0.889
 Vibration    12          0.801              1.380              0.822
 Vibration    13          0.832              1.304              0.722
 Vibration    14          0.896              1.159              0.563
 Vibration    15          0.932              1.085              0.494
 Vibration    16          0.939              1.069              0.481
 Vibration    17          0.956              1.035              0.452

 Normal termination of Gaussian 09 at Mon Oct  4 15:56:18 2021.
 Gaussian 09:  AM64L-G09RevA.02 11-Jun-2009

 ----------------------------------------------------------------------
 #p TD(NStates=10, Root=1) b3lyp/6-31G* volume pop=NPA density=current
 Geom=AllCheck Guess=Read
 ----------------------------------------------------------------------

 OB(c1ccc(cc1)C(F)(F)F)O_conf_0
 ------------------------------
 Redundant internal coordinates taken from checkpoint file:
 C7H6BF3O2_cdae_conf_0.chk
 Charge =  0 Multiplicity = 1

                         Standard orientation:
 ---------------------------------------------------------------------
 Center     Atomic      Atomic             Coordinates (Angstroms)
 Number     Number       Type             X           Y           Z
 ---------------------------------------------------------------------
      1          8           0        3.916781    1.203243    0.000080
      2          5           0        3.266229   -0.006173   -0.000008
      3          6           0        1.700468    0.004485   -0.000112
      4          6           0        0.985754    1.213033   -0.000118
      5          6           0       -0.408532    1.230800   -0.000369
      6          6           0       -1.113067    0.026111   -0.000369
      7          6           0       -0.423801   -1.191814   -0.000291
      8          6           0        0.967258   -1.196322   -0.000290
      9          6           0       -2.617440    0.005165    0.000043
     10          9           0       -3.152728    1.244788   -0.003634
     11          9           0       -3.105286   -0.646312   -1.082467
     12          9           0       -3.104785   -0.639503    1.086864
     13          8           0        3.900172   -1.224391    0.000284
     14          1           0        4.882659    1.148318    0.000286
     15          1           0        1.531291    2.152191   -0.000114
     16          1           0       -0.948202    2.171518   -0.000282
     17          1           0       -0.977824   -2.126102   -0.000684
     18          1           0        1.499929   -2.142812   -0.000361
     19          1           0        4.866728   -1.182572    0.000442
 ---------------------------------------------------------------------

 SCF Done:  E(RB3LYP) =  -745.296987623     A.U. after    1 cycles

 Excitation energies and oscillator strengths:

 Excited State   1:      Singlet-A      5.1013 eV  243.05 nm  f=0.0166  <S**2>=0.000
      47 -> 49        -0.16013
      47 -> 50        -0.33576
      48 -> 49         0.59272
      48 -> 50        -0.10135
 This state for optimization and/or second-order correction.
 Total Energy, E(TD-HF/TD-KS) =  -745.109520035
 Copying the excited state density for this state as the 1-particle RhoCI density.

 Excited State   2:      Singlet-A      5.7279 eV  216.46 nm  f=0.2298  <S**2>=0.000
      47 -> 49         0.63252
      48 -> 49         0.18086
      48 -> 50         0.24664

 Excited State   3:      Singlet-A      6.7777 eV  182.93 nm  f=0.0051  <S**2>=0.000
      45 -> 49         0.70274

 Excited State   4:      Singlet-A      6.8693 eV  180.49 nm  f=0.2687  <S**2>=0.000
      47 -> 49        -0.12328
      47 -> 50         0.55443
      48 -> 49         0.31869
      48 -> 50         0.21157
      48 -> 52         0.11341

 Excited State   5:      Singlet-A      6.9750 eV  177.75 nm  f=0.6655  <S**2>=0.000
      47 -> 49        -0.22712
      47 -> 50        -0.22813
      48 -> 50         0.60696

 Excited State   6:      Singlet-A      6.9865 eV  177.46 nm  f=0.0000  <S**2>=0.000
      43 -> 49        -0.19367
      44 -> 49         0.67579

 Excited State   7:      Singlet-A      7.1870 eV  172.51 nm  f=0.0002  <S**2>=0.000
      47 -> 51         0.40642
      48 -> 51         0.57474

 Excited State   8:      Singlet-A      7.2329 eV  171.42 nm  f=0.0001  <S**2>=0.000
      47 -> 51         0.57352
      48 -> 51        -0.40909

 Excited State   9:      Singlet-A      7.3074 eV  169.67 nm  f=0.0561  <S**2>=0.000
      46 -> 49         0.69473

 Excited State  10:      Singlet-A      7.5335 eV  164.58 nm  f=0.0000  <S**2>=0.000
      43 -> 49         0.47084
      44 -> 49         0.16878
      45 -> 50         0.49239

 The electronic state is 1-A.
 Alpha  occ. eigenvalues --  -24.71952 -24.71269 -24.71265 -19.17327 -19.17321
 Alpha  occ. eigenvalues --  -10.42445 -10.21087 -10.19920 -10.19883 -10.19486
 Alpha  occ. eigenvalues --  -10.19465 -10.17842  -6.79598  -1.29227  -1.20739
 Alpha  occ. eigenvalues --   -1.20172  -1.04890  -1.01533  -0.86312  -0.77499
 Alpha  occ. eigenvalues --   -0.75090  -0.68863  -0.62083  -0.61719  -0.57358
 Alpha  occ. eigenvalues --   -0.57012  -0.56976  -0.55540  -0.55083  -0.47507
 Alpha  occ. eigenvalues --   -0.45760  -0.45095  -0.44787  -0.44098  -0.42953
 Alpha  occ. eigenvalues --   -0.42698  -0.41225  -0.40342  -0.39930  -0.38883
 Alpha  occ. eigenvalues --   -0.37397  -0.36315  -0.35512  -0.34192  -0.33138
 Alpha  occ. eigenvalues --   -0.33099  -0.25945  -0.25608
 Alpha virt. eigenvalues --   -0.03876  -0.00475   0.03168   0.07409   0.09412
 Alpha virt. eigenvalues --    0.11289   0.14686   0.15018   0.16169   0.17524
 Alpha virt. eigenvalues --    0.20799   0.20968   0.22557   0.23010   0.25538

 Mulliken atomic charges:
              1
     1  O   -0.567900
     2  B    0.321649
     3  C    0.090950
     4  C   -0.194427
     5  C   -0.137246
     6  C   -0.025819
     7  C   -0.131829
     8  C   -0.192229
     9  C    0.776009
    10  F   -0.273965
    11  F   -0.271046
    12  F   -0.270961
    13  O   -0.568067
    14  H    0.389353
    15  H    0.166401
    16  H    0.165803
    17  H    0.166273
    18  H    0.167712
    19  H    0.389339
 Sum of Mulliken atomic charges =  -0.00000

 Dipole moment (field-independent basis, Debye):
    X=              4.2945    Y=              0.0344    Z=             -0.0007  Tot=              4.2946
 Quadrupole moment (field-independent basis, Debye-Ang):
   XX=            -55.8868   YY=            -68.3311   ZZ=            -73.6020
   XY=             -0.3817   XZ=              0.0052   YZ=              0.0012

 Summary of Natural Population Analysis:

                                       Natural Population
                Natural  -----------------------------------------------
    Atom  No    Charge         Core      Valence    Rydberg      Total
 -----------------------------------------------------------------------
      O    1   -0.89478      1.99975     6.88535    0.00969     8.89478
      B    2    1.05132      1.99924     1.92304    0.02639     3.94868
      C    3   -0.41793      1.99900     4.39910    0.01982     6.41793
      C    4   -0.14216      1.99914     4.12615    0.01688     6.14216
      C    5   -0.15665      1.99908     4.14038    0.01720     6.15665
      C    6   -0.21094      1.99890     4.19455    0.01750     6.21094
      C    7   -0.15330      1.99908     4.13662    0.01760     6.15330
      C    8   -0.13669      1.99914     4.12084    0.01672     6.13669
      C    9    1.10718      1.99907     2.82297    0.07078     4.89282
      F   10   -0.36571      1.99993     7.35972    0.00606     9.36571
      F   11   -0.36724      1.99993     7.36104    0.00627     9.36724
      F   12   -0.36724      1.99993     7.36104    0.00627     9.36724
      O   13   -0.89483      1.99975     6.88540    0.00968     8.89483
      H   14    0.48218      0.00000     0.51579    0.00203     0.51782
      H   15    0.24616      0.00000     0.75255    0.00129     0.75384
      H   16    0.24780      0.00000     0.75067    0.00153     0.75220
      H   17    0.24433      0.00000     0.75423    0.00144     0.75567
      H   18    0.24636      0.00000     0.75235    0.00129     0.75364
      H   19    0.48215      0.00000     0.51581    0.00203     0.51785
 =======================================================================
   * Total *   -0.00000     25.99195    69.75760    0.25045    96.00000

 Normal termination of Gaussian 09 at Mon Oct  4 17:39:08 2021.
