 Gaussian 09, Revision A.02,

 -----------------------------------
 #p opt b3lyp/6-31G* scf=(xqc,tight)
 -----------------------------------

 ----------------------
 c1ccc2n(c1)cnc2_conf_0
 ----------------------
 Symbolic Z-matrix:
 Charge =  0 Multiplicity = 1

 SCF Done:  E(RB3LYP) =  -379.840956405     A.U. after   15 cycles
 SCF Done:  E(RB3LYP) =  -379.842880449     A.U. after   16 cycles
 SCF Done:  E(RB3LYP) =  -379.843121688     A.U. after   15 cycles
 SCF Done:  E(RB3LYP) =  -379.843142858     A.U. after   15 cycles
 SCF Done:  E(RB3LYP) =  -379.843145209     A.U. after   15 cycles
 SCF Done:  E(RB3LYP) =  -379.843145966     A.U. after   15 cycles
 Optimization completed.
    -- Stationary point found.
 Normal termination of Gaussian 09 at Sun Oct  3 23:09:10 2021.

 ----------------------------------------------------------------------
 #p freq b3lyp/6-31G* volume NMR pop=NPA density=current Geom=AllCheck
 Guess=Read
 ----------------------------------------------------------------------

 c1ccc2n(c1)cnc2_conf_0
 ----------------------
 Redundant internal coordinates taken from checkpoint file:
 C7H6N2_7260_conf_0.chk
 Charge =  0 Multiplicity = 1

 SCF Done:  E(RB3LYP) =  -379.843145966     A.U. after    1 cycles

  1  C    Isotropic =    82.7070   Anisotropy =   141.5581

  2  C    Isotropic =    78.2029   Anisotropy =   150.2523

  3  C    Isotropic =    77.1474   Anisotropy =   147.6330

  4  C    Isotropic =    65.5800   Anisotropy =   124.6302

  5  N    Isotropic =    60.7640   Anisotropy =   202.5902

  6  C    Isotropic =    74.4786   Anisotropy =   110.5850

  7  C    Isotropic =    70.9500   Anisotropy =    70.8014

  8  N    Isotropic =   -23.5270   Anisotropy =   416.5086

  9  C    Isotropic =    75.2031   Anisotropy =    95.7427

 10  H    Isotropic =    25.8793   Anisotropy =     3.7233

 11  H    Isotropic =    25.7896   Anisotropy =     3.8925

 12  H    Isotropic =    25.0021   Anisotropy =     5.4260

 13  H    Isotropic =    24.5683   Anisotropy =     5.7412

 14  H    Isotropic =    24.4705   Anisotropy =     4.8610

 15  H    Isotropic =    24.9380   Anisotropy =     4.2830

  Exact polarizability: 118.124   0.385  90.160   0.001   0.001  29.857
 Approx polarizability: 217.387   0.431 156.671   0.003   0.000  46.583

                     1                      2                      3
                     A                      A                      A
 Frequencies --   203.9203               233.7422               403.7399
 Red. masses --     6.0374                 3.4377                 4.2656
 Frc consts  --     0.1479                 0.1107                 0.4097
 IR Inten    --     0.1927                 0.0015                 0.3142

                     4                      5                      6
                     A                      A                      A
 Frequencies --   425.3417               565.0645               570.4945
 Red. masses --     2.8708                 7.0428                 3.3562
 Frc consts  --     0.3060                 1.3249                 0.6436
 IR Inten    --     7.7000                 0.4301                 0.0108

                     7                      8                      9
                     A                      A                      A
 Frequencies --   627.4787               671.1873               718.7489
 Red. masses --     6.4038                 4.2326                 1.9459
 Frc consts  --     1.4856                 1.1234                 0.5923
 IR Inten    --     0.2208                17.4789                 0.6328

                    10                     11                     12
                     A                      A                      A
 Frequencies --   743.9491               753.0169               772.0475
 Red. masses --     1.4600                 1.6301                 5.3372
 Frc consts  --     0.4761                 0.5446                 1.8743
 IR Inten    --     4.0916                50.3083                 1.4562

                    13                     14                     15
                     A                      A                      A
 Frequencies --   805.0053               836.3613               915.1698
 Red. masses --     1.3755                 1.4941                 5.0795
 Frc consts  --     0.5252                 0.6158                 2.5066
 IR Inten    --    25.4715                 4.0892                10.8387

                    16                     17                     18
                     A                      A                      A
 Frequencies --   925.9374               930.9260               973.1123
 Red. masses --     4.5975                 1.2862                 1.2489
 Frc consts  --     2.3224                 0.6567                 0.6968
 IR Inten    --    19.6904                 0.2507                 0.0890

                    19                     20                     21
                     A                      A                      A
 Frequencies --  1028.8011              1159.3422              1168.7586
 Red. masses --     2.4297                 1.6685                 1.6131
 Frc consts  --     1.5152                 1.3213                 1.2982
 IR Inten    --     9.5694                 5.8971                 5.8877

                    22                     23                     24
                     A                      A                      A
 Frequencies --  1179.9005              1252.0096              1282.4822
 Red. masses --     1.1834                 1.3380                 2.0631
 Frc consts  --     0.9707                 1.2358                 1.9993
 IR Inten    --     5.6698                 2.2690                 8.9523

                    25                     26                     27
                     A                      A                      A
 Frequencies --  1311.0732              1338.6609              1363.6775
 Red. masses --     3.4238                 3.7176                 3.9839
 Frc consts  --     3.4675                 3.9251                 4.3649
 IR Inten    --     3.6525                15.2930                 5.9982

                    28                     29                     30
                     A                      A                      A
 Frequencies --  1404.4291              1489.3819              1505.1482
 Red. masses --     1.9084                 3.9276                 2.4553
 Frc consts  --     2.2178                 5.1332                 3.2773
 IR Inten    --     6.6515                15.1620                 0.2845

                    31                     32                     33
                     A                      A                      A
 Frequencies --  1562.7422              1585.3457              1695.2277
 Red. masses --     4.9732                 4.8273                 5.7139
 Frc consts  --     7.1558                 7.1483                 9.6747
 IR Inten    --     2.2085                 2.5134                 4.3663

                    34                     35                     36
                     A                      A                      A
 Frequencies --  3205.2104              3217.9721              3225.4092
 Red. masses --     1.0863                 1.0903                 1.0942
 Frc consts  --     6.5751                 6.6520                 6.7066
 IR Inten    --     0.9512                 7.5921                10.1744

                    37                     38                     39
                     A                      A                      A
 Frequencies --  3241.1562              3263.9007              3271.8222
 Red. masses --     1.0976                 1.0947                 1.0968
 Frc consts  --     6.7932                 6.8709                 6.9178
 IR Inten    --     6.3657                 8.0668                 1.0671

 - Thermochemistry -
 -------------------
 Temperature   298.150 Kelvin.  Pressure   1.00000 Atm.
 Atom     1 has atomic number  6 and mass  12.00000

 Molecular mass:   118.05310 amu.
 Principal axes and moments of inertia in atomic units:
                           1         2         3
     Eigenvalues --   446.028041077.110081523.13810
           X            1.00000   0.00044   0.00000
           Y           -0.00044   1.00000   0.00000
           Z           -0.00000  -0.00000   1.00000
 This molecule is an asymmetric top.
 Rotational symmetry number  1.
 Warning -- assumption of classical behavior for rotation
           may cause significant error
 Rotational temperatures (Kelvin)      0.19419     0.08041     0.05687
 Rotational constants (GHZ):           4.04625     1.67554     1.18488
 Zero-point vibrational energy     309998.5 (Joules/Mol)
                                   74.09141 (Kcal/Mol)
 Warning -- explicit consideration of   6 degrees of freedom as
           vibrations may cause significant error
 Vibrational temperatures:    293.40   336.30   580.89   611.97   813.00
          (Kelvin)            820.81   902.80   965.69  1034.12  1070.38
                             1083.42  1110.80  1158.22  1203.34  1316.72
                             1332.22  1339.39  1400.09  1480.21  1668.03
                             1681.58  1697.61  1801.36  1845.20  1886.34
                             1926.03  1962.03  2020.66  2142.89  2165.57
                             2248.43  2280.96  2439.05  4611.58  4629.94
                             4640.64  4663.30  4696.02  4707.42

 Zero-point correction=                           0.118072 (Hartree/Particle)
 Thermal correction to Energy=                    0.124075
 Thermal correction to Enthalpy=                  0.125019
 Thermal correction to Gibbs Free Energy=         0.087891
 Sum of electronic and zero-point Energies=           -379.725074
 Sum of electronic and thermal Energies=              -379.719071
 Sum of electronic and thermal Enthalpies=            -379.718127
 Sum of electronic and thermal Free Energies=         -379.755255

                     E (Thermal)             CV                S
                      KCal/Mol        Cal/Mol-Kelvin    Cal/Mol-Kelvin
 Total                   77.858             24.697             78.142
 Electronic               0.000              0.000              0.000
 Translational            0.889              2.981             40.213
 Rotational               0.889              2.981             28.083
 Vibrational             76.080             18.735              9.846
 Vibration     1          0.640              1.834              2.097
 Vibration     2          0.654              1.789              1.850
 Vibration     3          0.769              1.462              0.949
 Vibration     4          0.787              1.415              0.874
 Vibration     5          0.921              1.107              0.514
 Vibration     6          0.927              1.095              0.503

 Optimization completed.
    -- Stationary point found.
 Normal termination of Gaussian 09 at Sun Oct  3 23:48:14 2021.
 Gaussian 09:  AM64L-G09RevA.02 11-Jun-2009

 ----------------------------------------------------------------------
 #p TD(NStates=10, Root=1) b3lyp/6-31G* volume pop=NPA density=current
 Geom=AllCheck Guess=Read
 ----------------------------------------------------------------------

 c1ccc2n(c1)cnc2_conf_0
 ----------------------
 Redundant internal coordinates taken from checkpoint file:
 C7H6N2_7260_conf_0.chk
 Charge =  0 Multiplicity = 1

                         Standard orientation:
 ---------------------------------------------------------------------
 Center     Atomic      Atomic             Coordinates (Angstroms)
 Number     Number       Type             X           Y           Z
 ---------------------------------------------------------------------
      1          6           0       -2.077227   -0.735807   -0.000014
      2          6           0       -2.123685    0.696184   -0.000080
      3          6           0       -0.962081    1.421408   -0.000077
      4          6           0        0.289995    0.753733   -0.000003
      5          7           0        0.289272   -0.659898    0.000090
      6          6           0       -0.883613   -1.389197    0.000069
      7          6           0        1.603338   -1.050107    0.000044
      8          7           0        2.421982   -0.012542   -0.000322
      9          6           0        1.636138    1.100547    0.000267
     10          1           0       -2.994144   -1.315191    0.000006
     11          1           0       -3.085663    1.198644   -0.000070
     12          1           0       -0.972009    2.506873   -0.000057
     13          1           0       -0.776686   -2.467767    0.000115
     14          1           0        1.892994   -2.091930   -0.000029
     15          1           0        2.059547    2.095877    0.000416
 ---------------------------------------------------------------------

 SCF Done:  E(RB3LYP) =  -379.843145966     A.U. after    1 cycles

 Excitation energies and oscillator strengths:

 Excited State   1:      Singlet-A      3.7554 eV  330.15 nm  f=0.0434  <S**2>=0.000
      31 -> 32         0.69005
 This state for optimization and/or second-order correction.
 Total Energy, E(TD-HF/TD-KS) =  -379.705136057
 Copying the excited state density for this state as the 1-particle RhoCI density.

 Excited State   2:      Singlet-A      4.9348 eV  251.24 nm  f=0.0556  <S**2>=0.000
      30 -> 32         0.40717
      31 -> 32         0.10490
      31 -> 33         0.56347

 Excited State   3:      Singlet-A      5.4042 eV  229.42 nm  f=0.0008  <S**2>=0.000
      29 -> 32         0.70465

 Excited State   4:      Singlet-A      6.2188 eV  199.37 nm  f=0.6162  <S**2>=0.000
      30 -> 32         0.54637
      31 -> 33        -0.40220
      31 -> 34         0.14365

 Excited State   5:      Singlet-A      6.2567 eV  198.16 nm  f=0.0015  <S**2>=0.000
      29 -> 33         0.70046

 Excited State   6:      Singlet-A      6.4844 eV  191.20 nm  f=0.0025  <S**2>=0.000
      28 -> 32         0.22921
      30 -> 33         0.46910
      31 -> 34        -0.46427

 Excited State   7:      Singlet-A      6.7660 eV  183.25 nm  f=0.0000  <S**2>=0.000
      31 -> 35         0.70410

 Excited State   8:      Singlet-A      6.9957 eV  177.23 nm  f=0.0717  <S**2>=0.000
      27 -> 32        -0.17415
      28 -> 32         0.36996
      30 -> 32        -0.13093
      30 -> 33         0.30316
      31 -> 34         0.44874

 Excited State   9:      Singlet-A      7.2924 eV  170.02 nm  f=0.3254  <S**2>=0.000
      27 -> 32         0.14486
      28 -> 32         0.52913
      30 -> 33        -0.38318
      31 -> 32        -0.10901
      31 -> 34        -0.11246
      31 -> 38        -0.10939

 Excited State  10:      Singlet-A      7.4720 eV  165.93 nm  f=0.0001  <S**2>=0.000
      31 -> 36         0.70213

 The electronic state is 1-A.
 Alpha  occ. eigenvalues --  -14.41198 -14.31736 -10.24445 -10.23448 -10.22508
 Alpha  occ. eigenvalues --  -10.20826 -10.20663 -10.20323 -10.19558  -1.02798
 Alpha  occ. eigenvalues --   -0.90483  -0.82079  -0.77945  -0.71681  -0.65511
 Alpha  occ. eigenvalues --   -0.61308  -0.60574  -0.53524  -0.50106  -0.48591
 Alpha  occ. eigenvalues --   -0.46111  -0.45548  -0.44489  -0.40910  -0.39126
 Alpha  occ. eigenvalues --   -0.37055  -0.34633  -0.31052  -0.26734  -0.26064
 Alpha  occ. eigenvalues --   -0.19578
 Alpha virt. eigenvalues --   -0.03459   0.00611   0.07198   0.08740   0.11542
 Alpha virt. eigenvalues --    0.13762   0.14282   0.15308   0.16162   0.16899
 Alpha virt. eigenvalues --    0.20180   0.22033   0.25442   0.27664   0.30049

 Mulliken atomic charges:
              1
     1  C   -0.195979
     2  C   -0.099294
     3  C   -0.270067
     4  C    0.376465
     5  N   -0.458639
     6  C   -0.020423
     7  C    0.237363
     8  N   -0.432178
     9  C   -0.028694
    10  H    0.127462
    11  H    0.132918
    12  H    0.122632
    13  H    0.139372
    14  H    0.192227
    15  H    0.176835
 Sum of Mulliken atomic charges =  -0.00000

 Dipole moment (field-independent basis, Debye):
    X=             -0.3062    Y=             -0.4866    Z=              0.0008  Tot=              0.5749
 Quadrupole moment (field-independent basis, Debye-Ang):
   XX=            -55.6412   YY=            -42.9056   ZZ=            -54.7165
   XY=             -0.4319   XZ=              0.0020   YZ=              0.0005

 Summary of Natural Population Analysis:

                                       Natural Population
                Natural  -----------------------------------------------
    Atom  No    Charge         Core      Valence    Rydberg      Total
 -----------------------------------------------------------------------
      C    1   -0.31768      1.99912     4.30143    0.01714     6.31768
      C    2   -0.18490      1.99911     4.16930    0.01649     6.18490
      C    3   -0.40562      1.99904     4.38804    0.01854     6.40562
      C    4    0.17485      1.99912     3.80738    0.01865     5.82515
      N    5   -0.34879      1.99930     5.33770    0.01179     7.34879
      C    6   -0.15097      1.99909     4.12536    0.02652     6.15097
      C    7    0.28317      1.99937     3.69053    0.02693     5.71683
      N    8   -0.51412      1.99952     5.49133    0.02327     7.51412
      C    9    0.04486      1.99911     3.93464    0.02140     5.95514
      H   10    0.24167      0.00000     0.75775    0.00058     0.75833
      H   11    0.23780      0.00000     0.76142    0.00078     0.76220
      H   12    0.23826      0.00000     0.76098    0.00076     0.76174
      H   13    0.22651      0.00000     0.77261    0.00088     0.77349
      H   14    0.23525      0.00000     0.76424    0.00051     0.76475
      H   15    0.23972      0.00000     0.75979    0.00049     0.76028
 =======================================================================
   * Total *   -0.00000     17.99277    43.82249    0.18474    62.00000

 Normal termination of Gaussian 09 at Mon Oct  4 01:29:20 2021.
