 Gaussian 09, Revision A.02,

 -----------------------------------
 #p opt b3lyp/6-31G* scf=(xqc,tight)
 -----------------------------------

 --------------------
 [Li]c1ccccc1C_conf_0
 --------------------
 Symbolic Z-matrix:
 Charge =  0 Multiplicity = 1

 SCF Done:  E(RB3LYP) =  -278.452423728     A.U. after   14 cycles
 SCF Done:  E(RB3LYP) =  -278.455420611     A.U. after   11 cycles
 SCF Done:  E(RB3LYP) =  -278.455672607     A.U. after   10 cycles
 SCF Done:  E(RB3LYP) =  -278.455680649     A.U. after    9 cycles
 SCF Done:  E(RB3LYP) =  -278.455681809     A.U. after    8 cycles
 SCF Done:  E(RB3LYP) =  -278.455682993     A.U. after    8 cycles
 SCF Done:  E(RB3LYP) =  -278.455684805     A.U. after    9 cycles
 SCF Done:  E(RB3LYP) =  -278.455685219     A.U. after    8 cycles
 Optimization completed.
    -- Stationary point found.
 Normal termination of Gaussian 09 at Sat Oct  2 12:25:07 2021.

 ----------------------------------------------------------------------
 #p freq b3lyp/6-31G* volume NMR pop=NPA density=current Geom=AllCheck
 Guess=Read
 ----------------------------------------------------------------------

 [Li]c1ccccc1C_conf_0
 --------------------
 Redundant internal coordinates taken from checkpoint file:
 C7H7Li_e976_conf_0.chk
 Charge =  0 Multiplicity = 1

 SCF Done:  E(RB3LYP) =  -278.455685219     A.U. after    1 cycles

  1  Li   Isotropic =    90.9285   Anisotropy =    14.4871

  2  C    Isotropic =    28.1876   Anisotropy =   229.5383

  3  C    Isotropic =    53.9187   Anisotropy =   153.3551

  4  C    Isotropic =    73.8034   Anisotropy =   156.4791

  5  C    Isotropic =    71.3519   Anisotropy =   157.2615

  6  C    Isotropic =    70.4699   Anisotropy =   139.1389

  7  C    Isotropic =    50.7790   Anisotropy =   179.4799

  8  C    Isotropic =   158.3908   Anisotropy =    48.3412

  9  H    Isotropic =    24.5956   Anisotropy =     6.1807

 10  H    Isotropic =    25.7289   Anisotropy =     4.9088

 11  H    Isotropic =    25.5069   Anisotropy =     4.8861

 12  H    Isotropic =    25.4797   Anisotropy =     7.1928

 13  H    Isotropic =    30.2677   Anisotropy =     6.2140

 14  H    Isotropic =    29.7506   Anisotropy =     6.2123

 15  H    Isotropic =    29.7524   Anisotropy =     6.2094

  Exact polarizability: 112.464  12.142 107.723   0.008   0.008  48.580
 Approx polarizability: 167.096  11.780 162.580  -0.001   0.000  67.271

                     1                      2                      3
                     A                      A                      A
 Frequencies --    28.5049               106.1388               119.4323
 Red. masses --     1.0772                 6.0565                 4.4578
 Frc consts  --     0.0005                 0.0402                 0.0375
 IR Inten    --     0.8099                77.4570                64.3994

                     4                      5                      6
                     A                      A                      A
 Frequencies --   211.8624               359.8622               424.2016
 Red. masses --     3.0943                 2.6943                 3.3112
 Frc consts  --     0.0818                 0.2056                 0.3511
 IR Inten    --    18.2971                 4.0933                14.8867

                     7                      8                      9
                     A                      A                      A
 Frequencies --   483.2854               485.5641               559.1960
 Red. masses --     5.9213                 3.1836                 5.5460
 Frc consts  --     0.8148                 0.4422                 1.0218
 IR Inten    --    36.6731                 0.4016                11.8218

                    10                     11                     12
                     A                      A                      A
 Frequencies --   669.7260               723.1053               755.6076
 Red. masses --     6.4302                 3.6402                 1.2455
 Frc consts  --     1.6993                 1.1214                 0.4190
 IR Inten    --     4.3848                 0.2460                23.1268

                    13                     14                     15
                     A                      A                      A
 Frequencies --   804.6055               882.0400               930.9765
 Red. masses --     4.7594                 1.2679                 1.3613
 Frc consts  --     1.8154                 0.5812                 0.6952
 IR Inten    --     1.5653                 0.0869                 0.0419

                    16                     17                     18
                     A                      A                      A
 Frequencies --   977.0473              1003.3884              1024.4430
 Red. masses --     1.2431                 1.4703                 7.8690
 Frc consts  --     0.6992                 0.8722                 4.8657
 IR Inten    --     0.0142                 2.4106                 0.5403

                    19                     20                     21
                     A                      A                      A
 Frequencies --  1064.2502              1068.2046              1135.5415
 Red. masses --     1.5106                 2.6475                 1.5852
 Frc consts  --     1.0081                 1.7799                 1.2043
 IR Inten    --     3.6022                 0.3563                 2.7892

                    22                     23                     24
                     A                      A                      A
 Frequencies --  1190.7737              1220.1026              1287.9519
 Red. masses --     1.1218                 2.6038                 2.4949
 Frc consts  --     0.9372                 2.2838                 2.4384
 IR Inten    --     0.0970                 3.7918                14.6235

                    25                     26                     27
                     A                      A                      A
 Frequencies --  1323.1509              1427.0098              1467.0710
 Red. masses --     2.3542                 1.2673                 1.8827
 Frc consts  --     2.4283                 1.5205                 2.3875
 IR Inten    --     0.3717                 0.3961                 7.9589

                    28                     29                     30
                     A                      A                      A
 Frequencies --  1484.2404              1515.1589              1523.6142
 Red. masses --     2.1973                 1.0478                 1.1160
 Frc consts  --     2.8521                 1.4172                 1.5264
 IR Inten    --    17.1505                 6.1650                 4.1816

                    31                     32                     33
                     A                      A                      A
 Frequencies --  1612.4602              1625.7674              3008.5367
 Red. masses --     4.6498                 4.8300                 1.0394
 Frc consts  --     7.1230                 7.5217                 5.5430
 IR Inten    --     4.4238                 2.8205                47.4960

                    34                     35                     36
                     A                      A                      A
 Frequencies --  3049.9682              3094.5647              3097.3514
 Red. masses --     1.1006                 1.0865                 1.0965
 Frc consts  --     6.0321                 6.1305                 6.1977
 IR Inten    --    38.6356                52.0360                20.2263

                    37                     38                     39
                     A                      A                      A
 Frequencies --  3146.4509              3160.8137              3184.4680
 Red. masses --     1.0863                 1.0896                 1.0962
 Frc consts  --     6.3367                 6.4137                 6.5498
 IR Inten    --    19.6136                52.7293                61.3726

 - Thermochemistry -
 -------------------
 Temperature   298.150 Kelvin.  Pressure   1.00000 Atm.
 Atom     1 has atomic number  3 and mass   7.01600

 Molecular mass:    98.07078 amu.
 Principal axes and moments of inertia in atomic units:
                           1         2         3
     Eigenvalues --   501.87884 773.101831263.69967
           X            0.99073  -0.13587   0.00000
           Y            0.13587   0.99073   0.00000
           Z           -0.00000   0.00000   1.00000
 This molecule is an asymmetric top.
 Rotational symmetry number  1.
 Warning -- assumption of classical behavior for rotation
           may cause significant error
 Rotational temperatures (Kelvin)      0.17258     0.11203     0.06854
 Rotational constants (GHZ):           3.59597     2.33442     1.42814
 Zero-point vibrational energy     306462.0 (Joules/Mol)
                                   73.24617 (Kcal/Mol)
 Warning -- explicit consideration of   9 degrees of freedom as
           vibrations may cause significant error
 Vibrational temperatures:     41.01   152.71   171.84   304.82   517.76
          (Kelvin)            610.33   695.34   698.62   804.56   963.59
                             1040.39  1087.15  1157.65  1269.06  1339.47
                             1405.75  1443.65  1473.94  1531.22  1536.91
                             1633.79  1713.26  1755.45  1853.07  1903.72
                             2053.15  2110.79  2135.49  2179.97  2192.14
                             2319.97  2339.11  4328.61  4388.22  4452.38
                             4456.39  4527.04  4547.70  4581.73

 Zero-point correction=                           0.116725 (Hartree/Particle)
 Thermal correction to Energy=                    0.124475
 Thermal correction to Enthalpy=                  0.125419
 Thermal correction to Gibbs Free Energy=         0.083745
 Sum of electronic and zero-point Energies=           -278.338960
 Sum of electronic and thermal Energies=              -278.331210
 Sum of electronic and thermal Enthalpies=            -278.330266
 Sum of electronic and thermal Free Energies=         -278.371940

                     E (Thermal)             CV                S
                      KCal/Mol        Cal/Mol-Kelvin    Cal/Mol-Kelvin
 Total                   78.109             27.527             87.711
 Electronic               0.000              0.000              0.000
 Translational            0.889              2.981             39.660
 Rotational               0.889              2.981             27.685
 Vibrational             76.332             21.566             20.365
 Vibration     1          0.593              1.984              5.931
 Vibration     2          0.605              1.944              3.338
 Vibration     3          0.609              1.933              3.110
 Vibration     4          0.643              1.823              2.028
 Vibration     5          0.734              1.555              1.123
 Vibration     6          0.786              1.418              0.878
 Vibration     7          0.839              1.287              0.701
 Vibration     8          0.842              1.282              0.695
 Vibration     9          0.915              1.120              0.525

 Optimization completed.
    -- Stationary point found.
 Normal termination of Gaussian 09 at Sat Oct  2 13:14:04 2021.
 Gaussian 09:  AM64L-G09RevA.02 11-Jun-2009

 ----------------------------------------------------------------------
 #p TD(NStates=10, Root=1) b3lyp/6-31G* volume pop=NPA density=current
 Geom=AllCheck Guess=Read
 ----------------------------------------------------------------------

 [Li]c1ccccc1C_conf_0
 --------------------
 Redundant internal coordinates taken from checkpoint file:
 C7H7Li_e976_conf_0.chk
 Charge =  0 Multiplicity = 1

                         Standard orientation:
 ---------------------------------------------------------------------
 Center     Atomic      Atomic             Coordinates (Angstroms)
 Number     Number       Type             X           Y           Z
 ---------------------------------------------------------------------
      1          3           0        1.605109    2.627814   -0.000006
      2          6           0        0.369024    1.081160   -0.000041
      3          6           0       -1.028751    1.270284    0.000012
      4          6           0       -1.948398    0.212942    0.000027
      5          6           0       -1.480233   -1.098206    0.000010
      6          6           0       -0.102155   -1.333347   -0.000037
      7          6           0        0.807882   -0.268824   -0.000050
      8          6           0        2.294601   -0.581425    0.000041
      9          1           0       -1.437750    2.284206    0.000018
     10          1           0       -3.018820    0.413001    0.000049
     11          1           0       -2.175923   -1.934763    0.000017
     12          1           0        0.263803   -2.359993   -0.000057
     13          1           0        2.493167   -1.659686   -0.000912
     14          1           0        2.793966   -0.161688    0.885785
     15          1           0        2.794406   -0.160024   -0.884659
 ---------------------------------------------------------------------

 SCF Done:  E(RB3LYP) =  -278.455685219     A.U. after    1 cycles

 Excitation energies and oscillator strengths:

 Excited State   1:      Singlet-A      3.0148 eV  411.26 nm  f=0.0990  <S**2>=0.000
      26 -> 27         0.70447
 This state for optimization and/or second-order correction.
 Total Energy, E(TD-HF/TD-KS) =  -278.344895005
 Copying the excited state density for this state as the 1-particle RhoCI density.

 Excited State   2:      Singlet-A      3.2101 eV  386.24 nm  f=0.0067  <S**2>=0.000
      24 -> 27         0.14336
      25 -> 27         0.68984

 Excited State   3:      Singlet-A      3.5211 eV  352.12 nm  f=0.0033  <S**2>=0.000
      24 -> 27         0.69080
      25 -> 27        -0.14537

 Excited State   4:      Singlet-A      4.1130 eV  301.44 nm  f=0.0705  <S**2>=0.000
      26 -> 28         0.70436

 Excited State   5:      Singlet-A      4.3059 eV  287.94 nm  f=0.0405  <S**2>=0.000
      26 -> 29         0.69845

 Excited State   6:      Singlet-A      4.5595 eV  271.93 nm  f=0.0613  <S**2>=0.000
      25 -> 28         0.68850

 Excited State   7:      Singlet-A      4.6949 eV  264.08 nm  f=0.0006  <S**2>=0.000
      24 -> 29         0.10909
      25 -> 29         0.69708

 Excited State   8:      Singlet-A      4.7458 eV  261.25 nm  f=0.0711  <S**2>=0.000
      24 -> 28         0.66467
      25 -> 28         0.10057
      25 -> 30         0.20973

 Excited State   9:      Singlet-A      4.9748 eV  249.22 nm  f=0.0005  <S**2>=0.000
      24 -> 29         0.69692
      25 -> 29        -0.10980

 Excited State  10:      Singlet-A      5.0654 eV  244.77 nm  f=0.0011  <S**2>=0.000
      26 -> 30         0.70052

 The electronic state is 1-A.
 Alpha  occ. eigenvalues --  -10.15933 -10.15226 -10.14981 -10.14674 -10.14667
 Alpha  occ. eigenvalues --  -10.14457 -10.11027  -2.00091  -0.80266  -0.72892
 Alpha  occ. eigenvalues --   -0.68771  -0.64367  -0.54889  -0.53285  -0.45759
 Alpha  occ. eigenvalues --   -0.41305  -0.40172  -0.39215  -0.36873  -0.35484
 Alpha  occ. eigenvalues --   -0.33104  -0.30921  -0.29067  -0.20339  -0.19485
 Alpha  occ. eigenvalues --   -0.18818
 Alpha virt. eigenvalues --   -0.04989  -0.00374   0.00519   0.04451   0.05265
 Alpha virt. eigenvalues --    0.05997   0.10862   0.11513   0.13140   0.13682
 Alpha virt. eigenvalues --    0.16425   0.17859   0.19414   0.21271   0.21417

 Mulliken atomic charges:
              1
     1  Li  -0.023499
     2  C   -0.132995
     3  C   -0.182023
     4  C   -0.106091
     5  C   -0.125729
     6  C   -0.150476
     7  C    0.105848
     8  C   -0.549608
     9  H    0.165591
    10  H    0.153779
    11  H    0.153172
    12  H    0.148081
    13  H    0.167746
    14  H    0.188112
    15  H    0.188092
 Sum of Mulliken atomic charges =  -0.00000

 Dipole moment (field-independent basis, Debye):
    X=             -3.4993    Y=             -5.8445    Z=              0.0001  Tot=              6.8120
 Quadrupole moment (field-independent basis, Debye-Ang):
   XX=            -51.3376   YY=            -69.3225   ZZ=            -50.9713
   XY=            -16.8743   XZ=              0.0001   YZ=             -0.0003

 Summary of Natural Population Analysis:

                                       Natural Population
                Natural  -----------------------------------------------
    Atom  No    Charge         Core      Valence    Rydberg      Total
 -----------------------------------------------------------------------
     Li    1    0.11820      1.99576     0.88375    0.00229     2.88180
      C    2   -0.13377      1.99871     4.11535    0.01971     6.13377
      C    3   -0.28825      1.99908     4.27437    0.01480     6.28825
      C    4   -0.23437      1.99903     4.22173    0.01362     6.23437
      C    5   -0.20788      1.99908     4.19513    0.01367     6.20788
      C    6   -0.22680      1.99897     4.21538    0.01245     6.22680
      C    7   -0.08778      1.99899     4.07325    0.01554     6.08778
      C    8   -0.69485      1.99940     4.68792    0.00753     6.69485
      H    9    0.25352      0.00000     0.74615    0.00034     0.74648
      H   10    0.25226      0.00000     0.74698    0.00076     0.74774
      H   11    0.24937      0.00000     0.74998    0.00064     0.75063
      H   12    0.24931      0.00000     0.74974    0.00095     0.75069
      H   13    0.24638      0.00000     0.75290    0.00072     0.75362
      H   14    0.24988      0.00000     0.74954    0.00058     0.75012
      H   15    0.24985      0.00000     0.74957    0.00058     0.75015
 =======================================================================
   * Total *   -0.00494     15.98901    35.91175    0.10417    52.00494

 Normal termination of Gaussian 09 at Sat Oct  2 15:23:20 2021.
