 Gaussian 09, Revision A.02,

 -----------------------------------
 #p opt b3lyp/6-31G* scf=(xqc,tight)
 -----------------------------------

 ------------------------
 Cl[Mg]c1ccc(cc1)C_conf_0
 ------------------------
 Symbolic Z-matrix:
 Charge =  0 Multiplicity = 1

 SCF Done:  E(RB3LYP) =  -931.305264088     A.U. after   14 cycles
 SCF Done:  E(RB3LYP) =  -931.314880636     A.U. after   11 cycles
 SCF Done:  E(RB3LYP) =  -931.316468865     A.U. after   11 cycles
 SCF Done:  E(RB3LYP) =  -931.311890102     A.U. after   14 cycles
 SCF Done:  E(RB3LYP) =  -931.316597696     A.U. after   13 cycles
 SCF Done:  E(RB3LYP) =  -931.316690578     A.U. after    9 cycles
 SCF Done:  E(RB3LYP) =  -931.316693442     A.U. after    9 cycles
 SCF Done:  E(RB3LYP) =  -931.316694056     A.U. after    7 cycles
 SCF Done:  E(RB3LYP) =  -931.316694201     A.U. after    7 cycles
 SCF Done:  E(RB3LYP) =  -931.316694247     A.U. after   14 cycles
 Optimization completed.
    -- Stationary point found.
 Normal termination of Gaussian 09 at Sun Oct  3 08:08:54 2021.

 ----------------------------------------------------------------------
 #p freq b3lyp/6-31G* volume NMR pop=NPA density=current Geom=AllCheck
 Guess=Read
 ----------------------------------------------------------------------

 Cl[Mg]c1ccc(cc1)C_conf_0
 ------------------------
 Redundant internal coordinates taken from checkpoint file:
 C7H7ClMg_50b3_conf_0.chk
 Charge =  0 Multiplicity = 1

 SCF Done:  E(RB3LYP) =  -931.316694247     A.U. after    1 cycles

  1  Cl   Isotropic =  1043.2997   Anisotropy =   158.4116

  2  Mg   Isotropic =   530.8378   Anisotropy =   255.4319

  3  C    Isotropic =    56.0812   Anisotropy =   187.3316

  4  C    Isotropic =    55.0894   Anisotropy =   159.2179

  5  C    Isotropic =    67.1380   Anisotropy =   143.7029

  6  C    Isotropic =    57.0040   Anisotropy =   182.7679

  7  C    Isotropic =    67.7358   Anisotropy =   152.7342

  8  C    Isotropic =    55.3634   Anisotropy =   159.6959

  9  C    Isotropic =   167.5419   Anisotropy =    34.7488

 10  H    Isotropic =    24.8687   Anisotropy =     7.3998

 11  H    Isotropic =    25.3980   Anisotropy =     6.9780

 12  H    Isotropic =    25.2668   Anisotropy =     7.4746

 13  H    Isotropic =    24.8013   Anisotropy =     7.4249

 14  H    Isotropic =    30.5500   Anisotropy =     6.9452

 15  H    Isotropic =    29.8398   Anisotropy =     7.7162

 16  H    Isotropic =    29.8401   Anisotropy =     7.7155

  Exact polarizability: 166.086  -0.619  97.471   0.007  -0.000  56.085
 Approx polarizability: 216.913  -1.204 162.379   0.011  -0.000  79.209

 ******    1 imaginary frequencies (negative Signs) ******

                     1                      2                      3
                     A                      A                      A
 Frequencies --   -32.5167                41.9446                43.1703
 Red. masses --     1.0506                 7.3011                 6.4866
 Frc consts  --     0.0007                 0.0076                 0.0071
 IR Inten    --     0.1702                 5.2660                 2.7923

                     4                      5                      6
                     A                      A                      A
 Frequencies --   136.4820               177.1117               222.7199
 Red. masses --     6.9811                 9.5551                11.8637
 Frc consts  --     0.0766                 0.1766                 0.3467
 IR Inten    --    33.1958                38.0205                 0.0372

                     7                      8                      9
                     A                      A                      A
 Frequencies --   258.5311               344.8733               397.9484
 Red. masses --     4.2835                 2.5958                 2.8589
 Frc consts  --     0.1687                 0.1819                 0.2667
 IR Inten    --    12.9071                 0.9059                 0.0001

                    10                     11                     12
                     A                      A                      A
 Frequencies --   491.9796               495.3999               611.9513
 Red. masses --     2.9579                10.6260                 7.0596
 Frc consts  --     0.4218                 1.5365                 1.5576
 IR Inten    --    18.0906                78.1184                72.3454

                    13                     14                     15
                     A                      A                      A
 Frequencies --   652.3672               724.4544               801.3649
 Red. masses --     6.9913                 3.9446                 1.2661
 Frc consts  --     1.7530                 1.2198                 0.4790
 IR Inten    --     0.0559                 0.0073                22.0358

                    16                     17                     18
                     A                      A                      A
 Frequencies --   805.8526               866.3831               959.5964
 Red. masses --     5.0939                 1.2527                 1.3537
 Frc consts  --     1.9490                 0.5540                 0.7345
 IR Inten    --     0.0171                 0.0029                 0.0042

                    19                     20                     21
                     A                      A                      A
 Frequencies --   963.4291              1012.3336              1031.2510
 Red. masses --     1.2636                 1.5156                 4.2839
 Frc consts  --     0.6910                 0.9151                 2.6842
 IR Inten    --     0.0001                 3.4521                 3.2370

                    22                     23                     24
                     A                      A                      A
 Frequencies --  1074.6365              1084.9538              1140.5616
 Red. masses --     1.5280                 3.0948                 1.4655
 Frc consts  --     1.0397                 2.1464                 1.1232
 IR Inten    --     4.4382                13.7145                 0.6102

                    25                     26                     27
                     A                      A                      A
 Frequencies --  1229.9217              1244.6378              1304.9443
 Red. masses --     1.3141                 2.2361                 5.5607
 Frc consts  --     1.1712                 2.0409                 5.5791
 IR Inten    --     7.3599                 2.1443                 6.4551

                    28                     29                     30
                     A                      A                      A
 Frequencies --  1358.4585              1428.7239              1440.8509
 Red. masses --     1.3818                 2.2609                 1.2492
 Frc consts  --     1.5024                 2.7192                 1.5280
 IR Inten    --     1.3687                 8.8116                 0.0195

                    31                     32                     33
                     A                      A                      A
 Frequencies --  1514.7195              1519.1887              1540.2225
 Red. masses --     1.0445                 1.1115                 2.1193
 Frc consts  --     1.4119                 1.5114                 2.9622
 IR Inten    --     5.5281                10.2362                 0.5956

                    34                     35                     36
                     A                      A                      A
 Frequencies --  1602.4068              1648.7854              3042.8037
 Red. masses --     4.4876                 5.3555                 1.0374
 Frc consts  --     6.7890                 8.5779                 5.6592
 IR Inten    --     0.4388                14.0329                33.5766

                    37                     38                     39
                     A                      A                      A
 Frequencies --  3094.2739              3124.7896              3138.6758
 Red. masses --     1.1008                 1.1009                 1.0869
 Frc consts  --     6.2098                 6.3332                 6.3084
 IR Inten    --    20.7282                18.3705                 6.6265

                    40                     41                     42
                     A                      A                      A
 Frequencies --  3139.8991              3170.7317              3174.3716
 Red. masses --     1.0875                 1.0925                 1.0928
 Frc consts  --     6.3172                 6.4710                 6.4882
 IR Inten    --    23.1813                47.5919                24.0937

 - Thermochemistry -
 -------------------
 Temperature   298.150 Kelvin.  Pressure   1.00000 Atm.
 Atom     1 has atomic number 17 and mass  34.96885

 Molecular mass:   150.00867 amu.
 Principal axes and moments of inertia in atomic units:
                           1         2         3
     Eigenvalues --   324.059644568.803314881.67299
           X            1.00000  -0.00005   0.00000
           Y            0.00005   1.00000  -0.00000
           Z           -0.00000   0.00000   1.00000
 This molecule is an asymmetric top.
 Rotational symmetry number  1.
 Rotational temperatures (Kelvin)      0.26728     0.01896     0.01774
 Rotational constants (GHZ):           5.56916     0.39501     0.36970
    1 imaginary frequencies ignored.
 Zero-point vibrational energy     311374.2 (Joules/Mol)
                                   74.42022 (Kcal/Mol)
 Warning -- explicit consideration of  11 degrees of freedom as
           vibrations may cause significant error
 Vibrational temperatures:     60.35    62.11   196.37   254.82   320.44
          (Kelvin)            371.97   496.20   572.56   707.85   712.77
                              880.46   938.61  1042.33  1152.98  1159.44
                             1246.53  1380.64  1386.16  1456.52  1483.74
                             1546.16  1561.00  1641.01  1769.58  1790.75
                             1877.52  1954.52  2055.61  2073.06  2179.34
                             2185.77  2216.03  2305.50  2372.23  4377.91
                             4451.96  4495.87  4515.85  4517.61  4561.97
                             4567.21

 Zero-point correction=                           0.118596 (Hartree/Particle)
 Thermal correction to Energy=                    0.127446
 Thermal correction to Enthalpy=                  0.128390
 Thermal correction to Gibbs Free Energy=         0.082633
 Sum of electronic and zero-point Energies=           -931.198098
 Sum of electronic and thermal Energies=              -931.189248
 Sum of electronic and thermal Enthalpies=            -931.188304
 Sum of electronic and thermal Free Energies=         -931.234061

                     E (Thermal)             CV                S
                      KCal/Mol        Cal/Mol-Kelvin    Cal/Mol-Kelvin
 Total                   79.974             30.918             96.305
 Electronic               0.000              0.000              0.000
 Translational            0.889              2.981             40.927
 Rotational               0.889              2.981             30.359
 Vibrational             78.196             24.957             25.019
 Vibration     1          0.595              1.980              5.165
 Vibration     2          0.595              1.980              5.108
 Vibration     3          0.614              1.917              2.853
 Vibration     4          0.628              1.871              2.359
 Vibration     5          0.648              1.806              1.937
 Vibration     6          0.667              1.748              1.672
 Vibration     7          0.723              1.586              1.190
 Vibration     8          0.764              1.475              0.970
 Vibration     9          0.848              1.268              0.678
 Vibration    10          0.851              1.260              0.670
 Vibration    11          0.971              1.007              0.430

 Normal termination of Gaussian 09 at Sun Oct  3 09:03:05 2021.
 Gaussian 09:  AM64L-G09RevA.02 11-Jun-2009

 ----------------------------------------------------------------------
 #p TD(NStates=10, Root=1) b3lyp/6-31G* volume pop=NPA density=current
 Geom=AllCheck Guess=Read
 ----------------------------------------------------------------------

 Cl[Mg]c1ccc(cc1)C_conf_0
 ------------------------
 Redundant internal coordinates taken from checkpoint file:
 C7H7ClMg_50b3_conf_0.chk
 Charge =  0 Multiplicity = 1

                         Standard orientation:
 ---------------------------------------------------------------------
 Center     Atomic      Atomic             Coordinates (Angstroms)
 Number     Number       Type             X           Y           Z
 ---------------------------------------------------------------------
      1         17           0       -4.294370    0.001658    0.000231
      2         12           0       -2.079319   -0.003661   -0.000174
      3          6           0       -0.006798   -0.003947   -0.000324
      4          6           0        0.734849    1.194217   -0.000231
      5          6           0        2.132236    1.200915   -0.000004
      6          6           0        2.858936    0.005611    0.000114
      7          6           0        2.138943   -1.197310   -0.000004
      8          6           0        0.744387   -1.199301   -0.000226
      9          6           0        4.369879    0.003452    0.000298
     10          1           0        0.226515    2.158598   -0.000360
     11          1           0        2.665816    2.149728    0.000056
     12          1           0        2.678310   -2.143280    0.000057
     13          1           0        0.240880   -2.166169   -0.000354
     14          1           0        4.771282    1.021726    0.000750
     15          1           0        4.769480   -0.512988   -0.881502
     16          1           0        4.769253   -0.513695    0.881781
 ---------------------------------------------------------------------

 SCF Done:  E(RB3LYP) =  -931.316694247     A.U. after    1 cycles

 Excitation energies and oscillator strengths:

 Excited State   1:      Singlet-A      4.4071 eV  281.33 nm  f=0.0120  <S**2>=0.000
      39 -> 40         0.70392
 This state for optimization and/or second-order correction.
 Total Energy, E(TD-HF/TD-KS) =  -931.154735691
 Copying the excited state density for this state as the 1-particle RhoCI density.

 Excited State   2:      Singlet-A      4.6687 eV  265.57 nm  f=0.0000  <S**2>=0.000
      38 -> 40         0.70575

 Excited State   3:      Singlet-A      5.1253 eV  241.90 nm  f=0.0022  <S**2>=0.000
      38 -> 41         0.58383
      39 -> 43        -0.38523

 Excited State   4:      Singlet-A      5.3092 eV  233.53 nm  f=0.0917  <S**2>=0.000
      37 -> 40        -0.20164
      38 -> 43         0.11087
      39 -> 41         0.64764
      39 -> 44         0.15409

 Excited State   5:      Singlet-A      5.3402 eV  232.17 nm  f=0.0000  <S**2>=0.000
      39 -> 42         0.70515

 Excited State   6:      Singlet-A      5.3755 eV  230.65 nm  f=0.5610  <S**2>=0.000
      37 -> 40         0.64884
      39 -> 41         0.22569
      39 -> 44        -0.13467

 Excited State   7:      Singlet-A      5.5557 eV  223.16 nm  f=0.0170  <S**2>=0.000
      36 -> 40         0.16363
      37 -> 41         0.67552

 Excited State   8:      Singlet-A      5.6043 eV  221.23 nm  f=0.0020  <S**2>=0.000
      38 -> 42         0.69888

 Excited State   9:      Singlet-A      5.7739 eV  214.73 nm  f=0.0126  <S**2>=0.000
      35 -> 40         0.46478
      37 -> 42         0.49019
      38 -> 41        -0.11511
      39 -> 43        -0.15058

 Excited State  10:      Singlet-A      5.8339 eV  212.52 nm  f=0.0660  <S**2>=0.000
      36 -> 40         0.68375
      37 -> 41        -0.16399

 The electronic state is 1-A.
 Alpha  occ. eigenvalues -- -101.49863 -46.84507 -10.19727 -10.18935 -10.18917
 Alpha  occ. eigenvalues --  -10.18510 -10.18433 -10.18411 -10.17102  -9.41559
 Alpha  occ. eigenvalues --   -7.17482  -7.17213  -7.17206  -3.13282  -1.87935
 Alpha  occ. eigenvalues --   -1.87872  -1.87239  -0.84682  -0.76630  -0.76121
 Alpha  occ. eigenvalues --   -0.73819  -0.67535  -0.59842  -0.57287  -0.48686
 Alpha  occ. eigenvalues --   -0.45254  -0.44564  -0.41945  -0.41285  -0.38382
 Alpha  occ. eigenvalues --   -0.37379  -0.34851  -0.34037  -0.33230  -0.29797
 Alpha  occ. eigenvalues --   -0.29762  -0.26424  -0.24633  -0.23848
 Alpha virt. eigenvalues --   -0.04625  -0.02566  -0.01345   0.00171   0.02093
 Alpha virt. eigenvalues --    0.06920   0.10946   0.12545   0.12674   0.13235
 Alpha virt. eigenvalues --    0.13378   0.15386   0.16824   0.17379   0.19013

 Mulliken atomic charges:
              1
     1  Cl  -0.297600
     2  Mg  -0.044324
     3  C    0.020018
     4  C   -0.154528
     5  C   -0.147525
     6  C    0.201098
     7  C   -0.135794
     8  C   -0.166174
     9  C   -0.542640
    10  H    0.172213
    11  H    0.161556
    12  H    0.163731
    13  H    0.169453
    14  H    0.188729
    15  H    0.205902
    16  H    0.205884
 Sum of Mulliken atomic charges =  -0.00000

 Dipole moment (field-independent basis, Debye):
    X=             15.2779    Y=             -0.0842    Z=              0.0002  Tot=             15.2781
 Quadrupole moment (field-independent basis, Debye-Ang):
   XX=            -86.2662   YY=            -61.0719   ZZ=            -68.5456
   XY=             -0.5425   XZ=              0.0013   YZ=             -0.0001

 Summary of Natural Population Analysis:

                                       Natural Population
                Natural  -----------------------------------------------
    Atom  No    Charge         Core      Valence    Rydberg      Total
 -----------------------------------------------------------------------
     Cl    1   -0.72533      9.99990     7.71848    0.00695    17.72533
     Mg    2    0.68975      9.99838     1.28534    0.02653    11.31025
      C    3   -0.33703      1.99931     4.30273    0.03499     6.33703
      C    4   -0.18907      1.99917     4.17427    0.01563     6.18907
      C    5   -0.22545      1.99904     4.21308    0.01333     6.22545
      C    6    0.13782      1.99903     3.84943    0.01372     5.86218
      C    7   -0.19881      1.99903     4.18661    0.01317     6.19881
      C    8   -0.22186      1.99918     4.20680    0.01588     6.22186
      C    9   -0.71674      1.99938     4.70945    0.00790     6.71674
      H   10    0.24254      0.00000     0.75510    0.00236     0.75746
      H   11    0.24727      0.00000     0.75151    0.00122     0.75273
      H   12    0.24667      0.00000     0.75208    0.00125     0.75333
      H   13    0.24382      0.00000     0.75392    0.00227     0.75618
      H   14    0.25607      0.00000     0.74327    0.00066     0.74393
      H   15    0.27516      0.00000     0.72425    0.00059     0.72484
      H   16    0.27515      0.00000     0.72426    0.00059     0.72485
 =======================================================================
   * Total *   -0.00003     33.99243    43.85055    0.15705    78.00003

 Normal termination of Gaussian 09 at Sun Oct  3 10:57:10 2021.
