 Gaussian 09, Revision A.02,

 -----------------------------------
 #p opt b3lyp/6-31G* scf=(xqc,tight)
 -----------------------------------

 ------------------------
 Br[Mg]c1ccc(cc1)C_conf_0
 ------------------------
 Symbolic Z-matrix:
 Charge =  0 Multiplicity = 1

 SCF Done:  E(RB3LYP) =  -3042.81954059     A.U. after   13 cycles
 SCF Done:  E(RB3LYP) =  -3042.83036002     A.U. after   12 cycles
 SCF Done:  E(RB3LYP) =  -3042.83418612     A.U. after   12 cycles
 SCF Done:  E(RB3LYP) =  -3042.82805892     A.U. after   15 cycles
 SCF Done:  E(RB3LYP) =  -3042.83430070     A.U. after   14 cycles
 SCF Done:  E(RB3LYP) =  -3042.83436125     A.U. after    9 cycles
 SCF Done:  E(RB3LYP) =  -3042.83436551     A.U. after   14 cycles
 SCF Done:  E(RB3LYP) =  -3042.83436919     A.U. after   14 cycles
 SCF Done:  E(RB3LYP) =  -3042.83436956     A.U. after    7 cycles
 SCF Done:  E(RB3LYP) =  -3042.83436963     A.U. after    7 cycles
 SCF Done:  E(RB3LYP) =  -3042.83436964     A.U. after   14 cycles
 Optimization completed.
    -- Stationary point found.
 Normal termination of Gaussian 09 at Sun Oct  3 05:35:04 2021.

 ----------------------------------------------------------------------
 #p freq b3lyp/6-31G* volume NMR pop=NPA density=current Geom=AllCheck
 Guess=Read
 ----------------------------------------------------------------------

 Br[Mg]c1ccc(cc1)C_conf_0
 ------------------------
 Redundant internal coordinates taken from checkpoint file:
 C7H7BrMg_56c7_conf_0.chk
 Charge =  0 Multiplicity = 1

 SCF Done:  E(RB3LYP) =  -3042.83436964     A.U. after    1 cycles

  1  Br   Isotropic =  2947.9109   Anisotropy =   251.2375

  2  Mg   Isotropic =   517.3578   Anisotropy =   278.3524

  3  C    Isotropic =    54.8291   Anisotropy =   189.5060

  4  C    Isotropic =    55.2433   Anisotropy =   159.3061

  5  C    Isotropic =    67.2236   Anisotropy =   143.4243

  6  C    Isotropic =    57.1137   Anisotropy =   182.4259

  7  C    Isotropic =    67.8310   Anisotropy =   152.4649

  8  C    Isotropic =    55.5038   Anisotropy =   159.7958

  9  C    Isotropic =   167.5146   Anisotropy =    34.8330

 10  H    Isotropic =    24.7993   Anisotropy =     7.8644

 11  H    Isotropic =    25.3745   Anisotropy =     7.0334

 12  H    Isotropic =    25.2432   Anisotropy =     7.5293

 13  H    Isotropic =    24.7310   Anisotropy =     7.8888

 14  H    Isotropic =    30.5333   Anisotropy =     6.9489

 15  H    Isotropic =    29.8224   Anisotropy =     7.7489

 16  H    Isotropic =    29.8227   Anisotropy =     7.7481

  Exact polarizability: 178.183  -0.630 103.190   0.009  -0.000  61.964
 Approx polarizability: 234.716  -1.205 174.310   0.013  -0.000  91.152

 ******    1 imaginary frequencies (negative Signs) ******

                     1                      2                      3
                     A                      A                      A
 Frequencies --   -32.7979                42.0176                43.0634
 Red. masses --     1.0506                 6.5614                 5.8860
 Frc consts  --     0.0007                 0.0068                 0.0064
 IR Inten    --     0.1751                 2.3755                 0.8103

                     4                      5                      6
                     A                      A                      A
 Frequencies --   147.2054               176.6974               179.1959
 Red. masses --     6.7258                11.4108                 9.7900
 Frc consts  --     0.0859                 0.2099                 0.1852
 IR Inten    --    23.6217                 0.3072                30.2933

                     7                      8                      9
                     A                      A                      A
 Frequencies --   265.6640               344.6812               397.9915
 Red. masses --     4.4640                 2.5949                 2.8547
 Frc consts  --     0.1856                 0.1816                 0.2664
 IR Inten    --    12.6094                 0.7840                 0.0000

                    10                     11                     12
                     A                      A                      A
 Frequencies --   460.8612               494.7509               604.4084
 Red. masses --    11.9458                 2.9297                 6.3729
 Frc consts  --     1.4949                 0.4225                 1.3717
 IR Inten    --    78.4141                18.3589                49.5189

                    13                     14                     15
                     A                      A                      A
 Frequencies --   652.5569               729.0871               803.1838
 Red. masses --     6.9906                 3.8971                 1.2706
 Frc consts  --     1.7539                 1.2205                 0.4829
 IR Inten    --     0.0281                 0.1096                21.5621

                    16                     17                     18
                     A                      A                      A
 Frequencies --   805.7627               867.5672               961.4769
 Red. masses --     5.0934                 1.2525                 1.3624
 Frc consts  --     1.9484                 0.5554                 0.7420
 IR Inten    --     0.0185                 0.0028                 0.0029

                    19                     20                     21
                     A                      A                      A
 Frequencies --   965.8003              1012.2128              1031.4394
 Red. masses --     1.2658                 1.5129                 4.2851
 Frc consts  --     0.6956                 0.9133                 2.6860
 IR Inten    --     0.0002                 3.5114                 3.3286

                    22                     23                     24
                     A                      A                      A
 Frequencies --  1074.6441              1085.6808              1140.2956
 Red. masses --     1.5282                 3.1139                 1.4673
 Frc consts  --     1.0398                 2.1625                 1.1241
 IR Inten    --     4.4003                14.6207                 0.6767

                    25                     26                     27
                     A                      A                      A
 Frequencies --  1229.8816              1245.0921              1305.0291
 Red. masses --     1.3271                 2.1981                 5.6226
 Frc consts  --     1.1827                 2.0077                 5.6419
 IR Inten    --     7.9902                 1.8490                 6.2338

                    28                     29                     30
                     A                      A                      A
 Frequencies --  1359.1615              1428.6184              1440.7336
 Red. masses --     1.3779                 2.2598                 1.2494
 Frc consts  --     1.4997                 2.7173                 1.5280
 IR Inten    --     1.3547                 8.3804                 0.0313

                    31                     32                     33
                     A                      A                      A
 Frequencies --  1514.7455              1519.2254              1540.7582
 Red. masses --     1.0445                 1.1112                 2.1172
 Frc consts  --     1.4120                 1.5111                 2.9613
 IR Inten    --     5.4675                 9.9968                 0.5030

                    34                     35                     36
                     A                      A                      A
 Frequencies --  1602.3979              1648.8797              3042.5449
 Red. masses --     4.4784                 5.3586                 1.0374
 Frc consts  --     6.7751                 8.5838                 5.6582
 IR Inten    --     0.3908                14.1947                34.6160

                    37                     38                     39
                     A                      A                      A
 Frequencies --  3093.9413              3124.4505              3137.8664
 Red. masses --     1.1008                 1.1008                 1.0868
 Frc consts  --     6.2085                 6.3318                 6.3049
 IR Inten    --    20.9339                18.5769                 6.5508

                    40                     41                     42
                     A                      A                      A
 Frequencies --  3139.0805              3170.1550              3173.7978
 Red. masses --     1.0875                 1.0924                 1.0928
 Frc consts  --     6.3136                 6.4686                 6.4858
 IR Inten    --    23.4114                48.4706                25.0822

 - Thermochemistry -
 -------------------
 Temperature   298.150 Kelvin.  Pressure   1.00000 Atm.
 Atom     1 has atomic number 35 and mass  78.91834

 Molecular mass:   193.95816 amu.
 Principal axes and moments of inertia in atomic units:
                           1         2         3
     Eigenvalues --   323.913096858.885637171.60869
           X            1.00000  -0.00003   0.00001
           Y            0.00003   1.00000  -0.00000
           Z           -0.00001   0.00000   1.00000
 This molecule is an asymmetric top.
 Rotational symmetry number  1.
 Rotational temperatures (Kelvin)      0.26740     0.01263     0.01208
 Rotational constants (GHZ):           5.57168     0.26312     0.25165
    1 imaginary frequencies ignored.
 Zero-point vibrational energy     311044.6 (Joules/Mol)
                                   74.34145 (Kcal/Mol)
 Warning -- explicit consideration of  11 degrees of freedom as
           vibrations may cause significant error
 Vibrational temperatures:     60.45    61.96   211.80   254.23   257.82
          (Kelvin)            382.23   495.92   572.62   663.08   711.84
                              869.61   938.88  1048.99  1155.60  1159.31
                             1248.23  1383.35  1389.57  1456.35  1484.01
                             1546.17  1562.05  1640.63  1769.52  1791.41
                             1877.64  1955.53  2055.46  2072.89  2179.38
                             2185.82  2216.80  2305.49  2372.37  4377.54
                             4451.49  4495.38  4514.68  4516.43  4561.14
                             4566.38

 Zero-point correction=                           0.118471 (Hartree/Particle)
 Thermal correction to Energy=                    0.127387
 Thermal correction to Enthalpy=                  0.128331
 Thermal correction to Gibbs Free Energy=         0.081692
 Sum of electronic and zero-point Energies=          -3042.715899
 Sum of electronic and thermal Energies=             -3042.706983
 Sum of electronic and thermal Enthalpies=           -3042.706039
 Sum of electronic and thermal Free Energies=        -3042.752678

                     E (Thermal)             CV                S
                      KCal/Mol        Cal/Mol-Kelvin    Cal/Mol-Kelvin
 Total                   79.936             31.024             98.160
 Electronic               0.000              0.000              0.000
 Translational            0.889              2.981             41.693
 Rotational               0.889              2.981             31.144
 Vibrational             78.159             25.062             25.323
 Vibration     1          0.595              1.980              5.162
 Vibration     2          0.595              1.980              5.113
 Vibration     3          0.617              1.906              2.708
 Vibration     4          0.628              1.871              2.363
 Vibration     5          0.629              1.868              2.337
 Vibration     6          0.671              1.736              1.624
 Vibration     7          0.723              1.586              1.190
 Vibration     8          0.764              1.474              0.970
 Vibration     9          0.819              1.337              0.764
 Vibration    10          0.850              1.262              0.671
 Vibration    11          0.963              1.022              0.442

 Normal termination of Gaussian 09 at Sun Oct  3 06:35:00 2021.
 Gaussian 09:  AM64L-G09RevA.02 11-Jun-2009

 ----------------------------------------------------------------------
 #p TD(NStates=10, Root=1) b3lyp/6-31G* volume pop=NPA density=current
 Geom=AllCheck Guess=Read
 ----------------------------------------------------------------------

 Br[Mg]c1ccc(cc1)C_conf_0
 ------------------------
 Redundant internal coordinates taken from checkpoint file:
 C7H7BrMg_56c7_conf_0.chk
 Charge =  0 Multiplicity = 1

                         Standard orientation:
 ---------------------------------------------------------------------
 Center     Atomic      Atomic             Coordinates (Angstroms)
 Number     Number       Type             X           Y           Z
 ---------------------------------------------------------------------
      1         35           0       -3.564594    0.000605    0.000147
      2         12           0       -1.230036   -0.003111   -0.000253
      3          6           0        0.840649   -0.003413   -0.000424
      4          6           0        1.583495    1.194023   -0.000274
      5          6           0        2.980887    1.200784   -0.000021
      6          6           0        3.707375    0.005385    0.000120
      7          6           0        2.986972   -1.197252   -0.000019
      8          6           0        1.592404   -1.198430   -0.000273
      9          6           0        5.218365    0.002843    0.000403
     10          1           0        1.075373    2.158557   -0.000383
     11          1           0        3.514677    2.149523    0.000087
     12          1           0        3.526036   -2.143436    0.000089
     13          1           0        1.088606   -2.165191   -0.000381
     14          1           0        5.619982    1.021057    0.000860
     15          1           0        5.617990   -0.513660   -0.881370
     16          1           0        5.617672   -0.514342    0.881916
 ---------------------------------------------------------------------

 SCF Done:  E(RB3LYP) =  -3042.83436964     A.U. after    1 cycles

 Excitation energies and oscillator strengths:

 Excited State   1:      Singlet-A      4.4455 eV  278.90 nm  f=0.0101  <S**2>=0.000
      48 -> 49         0.70354
 This state for optimization and/or second-order correction.
 Total Energy, E(TD-HF/TD-KS) =  -3042.67099886
 Copying the excited state density for this state as the 1-particle RhoCI density.

 Excited State   2:      Singlet-A      4.7101 eV  263.23 nm  f=0.0000  <S**2>=0.000
      47 -> 49         0.70562

 Excited State   3:      Singlet-A      5.1148 eV  242.40 nm  f=0.0022  <S**2>=0.000
      47 -> 50         0.58749
      48 -> 52        -0.37897

 Excited State   4:      Singlet-A      5.2815 eV  234.75 nm  f=0.1160  <S**2>=0.000
      46 -> 49        -0.17298
      47 -> 52         0.10742
      48 -> 50         0.65807
      48 -> 53         0.14587

 Excited State   5:      Singlet-A      5.2988 eV  233.99 nm  f=0.0000  <S**2>=0.000
      48 -> 51         0.70509

 Excited State   6:      Singlet-A      5.3699 eV  230.89 nm  f=0.5613  <S**2>=0.000
      46 -> 49         0.65393
      48 -> 50         0.19721
      48 -> 53        -0.14182

 Excited State   7:      Singlet-A      5.4179 eV  228.84 nm  f=0.0088  <S**2>=0.000
      45 -> 49         0.58798
      46 -> 50         0.38847

 Excited State   8:      Singlet-A      5.4542 eV  227.32 nm  f=0.0367  <S**2>=0.000
      44 -> 49         0.69894

 Excited State   9:      Singlet-A      5.5424 eV  223.70 nm  f=0.0539  <S**2>=0.000
      45 -> 49        -0.35930
      46 -> 50         0.53869
      47 -> 51         0.27506

 Excited State  10:      Singlet-A      5.5679 eV  222.68 nm  f=0.0179  <S**2>=0.000
      45 -> 49         0.15113
      46 -> 50        -0.22747
      47 -> 51         0.65058

 The electronic state is 1-A.
 Alpha  occ. eigenvalues -- -482.87828 -61.84057 -56.35789 -56.35651 -56.35647
 Alpha  occ. eigenvalues --  -46.84340 -10.19587 -10.18767 -10.18749 -10.18409
 Alpha  occ. eigenvalues --  -10.18290 -10.18267 -10.16860  -8.54969  -6.49715
 Alpha  occ. eigenvalues --   -6.49318  -6.49308  -3.13143  -2.61392  -2.61269
 Alpha  occ. eigenvalues --   -2.61261  -2.60945  -2.60945  -1.87779  -1.87716
 Alpha  occ. eigenvalues --   -1.87118  -0.84532  -0.75987  -0.73664  -0.72467
 Alpha  occ. eigenvalues --   -0.67405  -0.59687  -0.57137  -0.48542  -0.45108
 Alpha  occ. eigenvalues --   -0.44416  -0.41838  -0.41125  -0.38265  -0.37226
 Alpha  occ. eigenvalues --   -0.34701  -0.33068  -0.32742  -0.28002  -0.27968
 Alpha  occ. eigenvalues --   -0.26123  -0.24483  -0.23690
 Alpha virt. eigenvalues --   -0.04339  -0.02496  -0.01357   0.00319   0.02157
 Alpha virt. eigenvalues --    0.06930   0.11035   0.12191   0.12578   0.13144
 Alpha virt. eigenvalues --    0.13288   0.15399   0.16457   0.17402   0.19088

 Mulliken atomic charges:
              1
     1  Br  -0.260121
     2  Mg  -0.086753
     3  C    0.029655
     4  C   -0.154307
     5  C   -0.147990
     6  C    0.200948
     7  C   -0.136331
     8  C   -0.165891
     9  C   -0.542546
    10  H    0.171465
    11  H    0.160989
    12  H    0.163117
    13  H    0.168631
    14  H    0.188328
    15  H    0.205411
    16  H    0.205395
 Sum of Mulliken atomic charges =  -0.00000

 Dipole moment (field-independent basis, Debye):
    X=             14.8783    Y=             -0.0921    Z=              0.0003  Tot=             14.8786
 Quadrupole moment (field-independent basis, Debye-Ang):
   XX=            -64.7692   YY=            -67.2404   ZZ=            -74.6423
   XY=             -0.6045   XZ=              0.0016   YZ=             -0.0001

 Summary of Natural Population Analysis:

                                       Natural Population
                Natural  -----------------------------------------------
    Atom  No    Charge         Core      Valence    Rydberg      Total
 -----------------------------------------------------------------------
     Br    1   -0.65565     27.99973     7.64542    0.01049    35.65565
     Mg    2    0.62188      9.99841     1.35039    0.02932    11.37812
      C    3   -0.33439      1.99931     4.30118    0.03391     6.33439
      C    4   -0.18895      1.99917     4.17409    0.01569     6.18895
      C    5   -0.22597      1.99904     4.21361    0.01332     6.22597
      C    6    0.13695      1.99903     3.85031    0.01372     5.86305
      C    7   -0.19963      1.99903     4.18743    0.01316     6.19963
      C    8   -0.22158      1.99918     4.20648    0.01592     6.22158
      C    9   -0.71656      1.99938     4.70928    0.00789     6.71656
      H   10    0.24191      0.00000     0.75555    0.00254     0.75809
      H   11    0.24700      0.00000     0.75177    0.00124     0.75300
      H   12    0.24641      0.00000     0.75233    0.00126     0.75359
      H   13    0.24312      0.00000     0.75444    0.00244     0.75688
      H   14    0.25583      0.00000     0.74350    0.00066     0.74417
      H   15    0.27480      0.00000     0.72460    0.00059     0.72520
      H   16    0.27479      0.00000     0.72462    0.00059     0.72521
 =======================================================================
   * Total *   -0.00004     51.99228    43.84500    0.16276    96.00004

 Normal termination of Gaussian 09 at Sun Oct  3 08:57:18 2021.
