 Gaussian 09, Revision A.02,

 -----------------------------------
 #p opt b3lyp/6-31G* scf=(xqc,tight)
 -----------------------------------

 -------------------------------
 COc1cccc(c1)[N+](=O)[O-]_conf_0
 -------------------------------
 Symbolic Z-matrix:
 Charge =  0 Multiplicity = 1

 SCF Done:  E(RB3LYP) =  -551.272233179     A.U. after   15 cycles
 SCF Done:  E(RB3LYP) =  -551.273857605     A.U. after   13 cycles
 SCF Done:  E(RB3LYP) =  -551.273628305     A.U. after   13 cycles
 SCF Done:  E(RB3LYP) =  -551.273893973     A.U. after   13 cycles
 SCF Done:  E(RB3LYP) =  -551.273547532     A.U. after   16 cycles
 SCF Done:  E(RB3LYP) =  -551.273964844     A.U. after   16 cycles
 SCF Done:  E(RB3LYP) =  -551.273976790     A.U. after    9 cycles
 Optimization completed.
    -- Stationary point found.
 Normal termination of Gaussian 09 at Wed Sep 29 00:55:53 2021.

 ----------------------------------------------------------------------
 #p freq b3lyp/6-31G* volume NMR pop=NPA density=current Geom=AllCheck
 Guess=Read
 ----------------------------------------------------------------------

 COc1cccc(c1)[N+](=O)[O-]_conf_0
 -------------------------------
 Redundant internal coordinates taken from checkpoint file:
 C7H7NO3_5e8a_conf_0.chk
 Charge =  0 Multiplicity = 1

 SCF Done:  E(RB3LYP) =  -551.273976790     A.U. after    1 cycles

  1  C    Isotropic =   136.8382   Anisotropy =    66.7539

  2  O    Isotropic =   232.4897   Anisotropy =    88.8188

  3  C    Isotropic =    38.0566   Anisotropy =   124.4710

  4  C    Isotropic =    71.9709   Anisotropy =   146.3447

  5  C    Isotropic =    66.8225   Anisotropy =   165.5405

  6  C    Isotropic =    78.9760   Anisotropy =   158.2571

  7  C    Isotropic =    46.8077   Anisotropy =   100.2776

  8  C    Isotropic =    89.3060   Anisotropy =   144.5447

  9  N    Isotropic =  -111.0163   Anisotropy =   265.4647

 10  O    Isotropic =  -268.6485   Anisotropy =   710.4141

 11  O    Isotropic =  -262.4233   Anisotropy =   701.4647

 12  H    Isotropic =    28.1926   Anisotropy =     7.8617

 13  H    Isotropic =    28.5354   Anisotropy =     7.9823

 14  H    Isotropic =    28.5342   Anisotropy =     7.9840

 15  H    Isotropic =    25.2064   Anisotropy =     6.2290

 16  H    Isotropic =    24.9462   Anisotropy =     4.4542

 17  H    Isotropic =    24.4418   Anisotropy =     4.3380

 18  H    Isotropic =    24.8101   Anisotropy =     7.5268

  Exact polarizability: 120.280   3.355 108.115   0.000   0.004  38.004
 Approx polarizability: 197.439   9.936 193.173   0.003   0.004  57.058

                     1                      2                      3
                     A                      A                      A
 Frequencies --    56.5118               100.6883               162.6623
 Red. masses --    10.3503                 3.3517                 4.0391
 Frc consts  --     0.0195                 0.0200                 0.0630
 IR Inten    --     0.0652                 5.7600                 1.6285

                     4                      5                      6
                     A                      A                      A
 Frequencies --   169.3272               219.4993               276.6232
 Red. masses --     4.8160                 1.7442                 1.8436
 Frc consts  --     0.0814                 0.0495                 0.0831
 IR Inten    --     3.5953                 0.0628                 1.0237

                     7                      8                      9
                     A                      A                      A
 Frequencies --   300.1429               390.7454               446.6047
 Red. masses --     4.6534                 8.9422                 3.3715
 Frc consts  --     0.2470                 0.8044                 0.3962
 IR Inten    --     1.1463                 0.8578                 0.0001

                    10                     11                     12
                     A                      A                      A
 Frequencies --   460.5711               508.4156               555.9512
 Red. masses --     4.9732                 7.5668                 5.1240
 Frc consts  --     0.6215                 1.1524                 0.9331
 IR Inten    --     0.8470                 2.0905                 2.0882

                    13                     14                     15
                     A                      A                      A
 Frequencies --   588.3841               682.1364               683.7164
 Red. masses --     5.0233                 7.2656                 2.5466
 Frc consts  --     1.0246                 1.9919                 0.7014
 IR Inten    --     3.8394                 2.1329                 4.9026

                    16                     17                     18
                     A                      A                      A
 Frequencies --   752.0368               815.0544               815.8536
 Red. masses --     4.1391                 1.5126                 9.7759
 Frc consts  --     1.3792                 0.5920                 3.8338
 IR Inten    --    38.2184                14.3833                57.7624

                    19                     20                     21
                     A                      A                      A
 Frequencies --   891.9199               929.8699               937.3587
 Red. masses --     1.5696                 1.4006                 5.4122
 Frc consts  --     0.7357                 0.7135                 2.8018
 IR Inten    --    22.4920                 1.4058                 2.7404

                    22                     23                     24
                     A                      A                      A
 Frequencies --   986.9004              1014.7329              1074.3307
 Red. masses --     1.2795                 5.9547                 4.3580
 Frc consts  --     0.7343                 3.6125                 2.9636
 IR Inten    --     0.4846                 0.7359                46.2974

                    25                     26                     27
                     A                      A                      A
 Frequencies --  1108.2635              1124.0635              1184.8249
 Red. masses --     1.6184                 1.9746                 1.2697
 Frc consts  --     1.1712                 1.4700                 1.0502
 IR Inten    --     3.5265                55.3801                 0.7788

                    28                     29                     30
                     A                      A                      A
 Frequencies --  1190.8948              1220.2047              1296.0516
 Red. masses --     1.1278                 1.3966                 2.8045
 Frc consts  --     0.9424                 1.2251                 2.7755
 IR Inten    --     0.4541                 1.1228               165.2754

                    31                     32                     33
                     A                      A                      A
 Frequencies --  1326.6142              1387.6666              1397.5439
 Red. masses --     1.7243                 6.6198                13.1866
 Frc consts  --     1.7879                 7.5105                15.1745
 IR Inten    --    53.1926                90.6467               272.3198

                    34                     35                     36
                     A                      A                      A
 Frequencies --  1480.6084              1502.6048              1521.8612
 Red. masses --     2.1919                 1.4976                 1.0468
 Frc consts  --     2.8311                 1.9922                 1.4284
 IR Inten    --    10.1256                20.3283                 6.7412

                    37                     38                     39
                     A                      A                      A
 Frequencies --  1531.6024              1541.5289              1626.3780
 Red. masses --     1.1806                 1.9191                 8.9340
 Frc consts  --     1.6317                 2.6869                13.9232
 IR Inten    --    60.6732                21.6860               173.6850

                    40                     41                     42
                     A                      A                      A
 Frequencies --  1639.6348              1681.9471              3034.8001
 Red. masses --     6.8903                 7.6654                 1.0344
 Frc consts  --    10.9139                12.7764                 5.6131
 IR Inten    --   160.2108                 3.7539                40.3945

                    43                     44                     45
                     A                      A                      A
 Frequencies --  3097.1955              3168.9098              3205.3851
 Red. masses --     1.1072                 1.1006                 1.0886
 Frc consts  --     6.2575                 6.5117                 6.5896
 IR Inten    --    35.3967                20.7331                 8.3084

                    46                     47                     48
                     A                      A                      A
 Frequencies --  3224.3767              3261.4092              3274.2209
 Red. masses --     1.0940                 1.0926                 1.0900
 Frc consts  --     6.7014                 6.8475                 6.8847
 IR Inten    --     5.4713                 1.7863                 4.3858

 - Thermochemistry -
 -------------------
 Temperature   298.150 Kelvin.  Pressure   1.00000 Atm.
 Atom     1 has atomic number  6 and mass  12.00000

 Molecular mass:   153.04259 amu.
 Principal axes and moments of inertia in atomic units:
                           1         2         3
     Eigenvalues --   939.308562242.563403170.34159
           X            0.99897   0.04540  -0.00001
           Y           -0.04540   0.99897   0.00000
           Z            0.00001  -0.00000   1.00000
 This molecule is an asymmetric top.
 Rotational symmetry number  1.
 Warning -- assumption of classical behavior for rotation
           may cause significant error
 Rotational temperatures (Kelvin)      0.09221     0.03862     0.02732
 Rotational constants (GHZ):           1.92135     0.80477     0.56926
 Zero-point vibrational energy     357974.3 (Joules/Mol)
                                   85.55791 (Kcal/Mol)
 Warning -- explicit consideration of  13 degrees of freedom as
           vibrations may cause significant error
 Vibrational temperatures:     81.31   144.87   234.03   243.62   315.81
          (Kelvin)            398.00   431.84   562.19   642.56   662.66
                              731.50   799.89   846.55   981.44   983.71
                             1082.01  1172.68  1173.83  1283.27  1337.87
                             1348.65  1419.93  1459.97  1545.72  1594.54
                             1617.27  1704.70  1713.43  1755.60  1864.73
                             1908.70  1996.54  2010.75  2130.26  2161.91
                             2189.62  2203.63  2217.91  2339.99  2359.07
                             2419.94  4366.40  4456.17  4559.35  4611.83
                             4639.15  4692.43  4710.87

 Zero-point correction=                           0.136345 (Hartree/Particle)
 Thermal correction to Energy=                    0.145674
 Thermal correction to Enthalpy=                  0.146618
 Thermal correction to Gibbs Free Energy=         0.101134
 Sum of electronic and zero-point Energies=           -551.137632
 Sum of electronic and thermal Energies=              -551.128303
 Sum of electronic and thermal Enthalpies=            -551.127359
 Sum of electronic and thermal Free Energies=         -551.172843

                     E (Thermal)             CV                S
                      KCal/Mol        Cal/Mol-Kelvin    Cal/Mol-Kelvin
 Total                   91.412             34.795             95.730
 Electronic               0.000              0.000              0.000
 Translational            0.889              2.981             40.987
 Rotational               0.889              2.981             30.280
 Vibrational             89.634             28.833             24.463
 Vibration     1          0.596              1.975              4.575
 Vibration     2          0.604              1.949              3.441
 Vibration     3          0.623              1.888              2.519
 Vibration     4          0.625              1.880              2.443
 Vibration     5          0.647              1.811              1.963
 Vibration     6          0.678              1.717              1.554
 Vibration     7          0.693              1.673              1.416
 Vibration     8          0.758              1.490              0.997
 Vibration     9          0.806              1.368              0.806
 Vibration    10          0.818              1.338              0.764
 Vibration    11          0.864              1.231              0.637
 Vibration    12          0.911              1.127              0.532
 Vibration    13          0.946              1.057              0.470

 Optimization completed.
    -- Stationary point found.
 Normal termination of Gaussian 09 at Wed Sep 29 01:19:26 2021.
 Gaussian 09:  AM64L-G09RevA.02 11-Jun-2009

 ----------------------------------------------------------------------
 #p TD(NStates=10, Root=1) b3lyp/6-31G* volume pop=NPA density=current
 Geom=AllCheck Guess=Read
 ----------------------------------------------------------------------

 COc1cccc(c1)[N+](=O)[O-]_conf_0
 -------------------------------
 Redundant internal coordinates taken from checkpoint file:
 C7H7NO3_5e8a_conf_0.chk
 Charge =  0 Multiplicity = 1

                         Standard orientation:
 ---------------------------------------------------------------------
 Center     Atomic      Atomic             Coordinates (Angstroms)
 Number     Number       Type             X           Y           Z
 ---------------------------------------------------------------------
      1          6           0       -2.906143   -1.634239    0.000323
      2          8           0       -2.737186   -0.221794   -0.000453
      3          6           0       -1.473092    0.276947   -0.000184
      4          6           0       -1.368234    1.679071    0.000040
      5          6           0       -0.119940    2.290474    0.000199
      6          6           0        1.050813    1.527875    0.000173
      7          6           0        0.919885    0.144316   -0.000024
      8          6           0       -0.315856   -0.505449   -0.000188
      9          7           0        2.137131   -0.685785   -0.000058
     10          8           0        3.223851   -0.108495   -0.000206
     11          8           0        1.996670   -1.909524    0.000218
     12          1           0       -3.983591   -1.804338    0.000728
     13          1           0       -2.463888   -2.089749    0.895367
     14          1           0       -2.464447   -2.090668   -0.894533
     15          1           0       -2.282955    2.263069    0.000102
     16          1           0       -0.054152    3.374453    0.000352
     17          1           0        2.034688    1.978224    0.000253
     18          1           0       -0.336847   -1.585967   -0.000370
 ---------------------------------------------------------------------

 SCF Done:  E(RB3LYP) =  -551.273976790     A.U. after    2 cycles

 Excitation energies and oscillator strengths:

 Excited State   1:      Singlet-A      3.7029 eV  334.83 nm  f=0.0378  <S**2>=0.000
      40 -> 41         0.69349
 This state for optimization and/or second-order correction.
 Total Energy, E(TD-HF/TD-KS) =  -551.137898598
 Copying the excited state density for this state as the 1-particle RhoCI density.

 Excited State   2:      Singlet-A      3.7729 eV  328.62 nm  f=0.0000  <S**2>=0.000
      38 -> 41         0.69695
      38 -> 43        -0.11017

 Excited State   3:      Singlet-A      4.2802 eV  289.67 nm  f=0.0000  <S**2>=0.000
      37 -> 41         0.69664
      37 -> 43        -0.10389

 Excited State   4:      Singlet-A      4.7322 eV  262.00 nm  f=0.1322  <S**2>=0.000
      39 -> 41         0.67640
      40 -> 41        -0.10009
      40 -> 42        -0.15715

 Excited State   5:      Singlet-A      5.6872 eV  218.00 nm  f=0.0843  <S**2>=0.000
      39 -> 41         0.13396
      39 -> 42        -0.17695
      39 -> 43        -0.22221
      40 -> 42         0.54901
      40 -> 43        -0.31059

 Excited State   6:      Singlet-A      6.0782 eV  203.98 nm  f=0.0136  <S**2>=0.000
      36 -> 41         0.65436
      36 -> 43         0.17050
      40 -> 43        -0.16114

 Excited State   7:      Singlet-A      6.1506 eV  201.58 nm  f=0.1177  <S**2>=0.000
      35 -> 41         0.60339
      36 -> 41         0.11895
      40 -> 42         0.12722
      40 -> 43         0.30586

 Excited State   8:      Singlet-A      6.3401 eV  195.55 nm  f=0.1296  <S**2>=0.000
      35 -> 41        -0.32887
      39 -> 42         0.31526
      40 -> 42         0.31870
      40 -> 43         0.41249

 Excited State   9:      Singlet-A      6.4459 eV  192.35 nm  f=0.0000  <S**2>=0.000
      33 -> 41        -0.10755
      34 -> 41         0.67407
      38 -> 42        -0.12187

 Excited State  10:      Singlet-A      6.6363 eV  186.83 nm  f=0.0000  <S**2>=0.000
      34 -> 41         0.13109
      38 -> 42         0.67535
      38 -> 43        -0.14279

 The electronic state is 1-A.
 Alpha  occ. eigenvalues --  -19.19751 -19.17957 -19.17951 -14.57052 -10.27353
 Alpha  occ. eigenvalues --  -10.25502 -10.25404 -10.21648 -10.21558 -10.21320
 Alpha  occ. eigenvalues --  -10.21300  -1.22223  -1.08435  -1.04933  -0.88728
 Alpha  occ. eigenvalues --   -0.80819  -0.77411  -0.72812  -0.69614  -0.62194
 Alpha  occ. eigenvalues --   -0.59627  -0.56421  -0.52971  -0.52248  -0.51020
 Alpha  occ. eigenvalues --   -0.50516  -0.49120  -0.48452  -0.46034  -0.43449
 Alpha  occ. eigenvalues --   -0.40107  -0.39942  -0.38383  -0.35488  -0.34250
 Alpha  occ. eigenvalues --   -0.30829  -0.30579  -0.28919  -0.27974  -0.24411
 Alpha virt. eigenvalues --   -0.08749  -0.01452   0.00667   0.07735   0.09425
 Alpha virt. eigenvalues --    0.11446   0.13997   0.14328   0.14960   0.15443
 Alpha virt. eigenvalues --    0.15584   0.17872   0.20316   0.23593   0.27058

 Mulliken atomic charges:
              1
     1  C   -0.256575
     2  O   -0.411635
     3  C    0.378311
     4  C   -0.156477
     5  C   -0.133439
     6  C   -0.133213
     7  C    0.299709
     8  C   -0.197367
     9  N    0.304154
    10  O   -0.523959
    11  O   -0.535494
    12  H    0.204087
    13  H    0.207349
    14  H    0.207352
    15  H    0.159552
    16  H    0.165631
    17  H    0.211946
    18  H    0.210069
 Sum of Mulliken atomic charges =  -0.00000

 Dipole moment (field-independent basis, Debye):
    X=            -10.3313    Y=              2.4835    Z=              0.0008  Tot=             10.6256
 Quadrupole moment (field-independent basis, Debye-Ang):
   XX=            -73.5360   YY=            -56.2806   ZZ=            -62.3748
   XY=             15.6039   XZ=             -0.0018   YZ=              0.0016

 Summary of Natural Population Analysis:

                                       Natural Population
                Natural  -----------------------------------------------
    Atom  No    Charge         Core      Valence    Rydberg      Total
 -----------------------------------------------------------------------
      C    1   -0.33869      1.99941     4.32512    0.01417     6.33869
      O    2   -0.36999      1.99975     6.35882    0.01142     8.36999
      C    3    0.37492      1.99881     3.60473    0.02154     5.62508
      C    4   -0.30267      1.99907     4.28818    0.01542     6.30267
      C    5   -0.19854      1.99913     4.18508    0.01432     6.19854
      C    6   -0.14965      1.99900     4.13402    0.01664     6.14965
      C    7    0.10093      1.99885     3.87778    0.02244     5.89907
      C    8   -0.23401      1.99895     4.22003    0.01503     6.23401
      N    9    0.37875      1.99958     4.57102    0.05065     6.62125
      O   10   -0.52614      1.99983     6.51159    0.01471     8.52614
      O   11   -0.53948      1.99983     6.52529    0.01435     8.53948
      H   12    0.24632      0.00000     0.75328    0.00040     0.75368
      H   13    0.23924      0.00000     0.75982    0.00094     0.76076
      H   14    0.23925      0.00000     0.75981    0.00094     0.76075
      H   15    0.25624      0.00000     0.74271    0.00105     0.74376
      H   16    0.25389      0.00000     0.74541    0.00070     0.74611
      H   17    0.28598      0.00000     0.71195    0.00206     0.71402
      H   18    0.28365      0.00000     0.71386    0.00249     0.71635
 =======================================================================
   * Total *   -0.00000     21.99220    57.78851    0.21928    80.00000

 Normal termination of Gaussian 09 at Wed Sep 29 02:52:07 2021.
