 Gaussian 09, Revision A.02,

 -----------------------------------
 #p opt b3lyp/6-31G* scf=(xqc,tight)
 -----------------------------------

 -------------------------
 COc1ccc(cc1)[Mg]Br_conf_0
 -------------------------
 Symbolic Z-matrix:
 Charge =  0 Multiplicity = 1

 SCF Done:  E(RB3LYP) =  -3118.02131067     A.U. after   14 cycles
 SCF Done:  E(RB3LYP) =  -3118.03429784     A.U. after   11 cycles
 SCF Done:  E(RB3LYP) =  -3118.03943225     A.U. after   13 cycles
 SCF Done:  E(RB3LYP) =  -3118.03791547     A.U. after   13 cycles
 SCF Done:  E(RB3LYP) =  -3118.03951200     A.U. after   13 cycles
 SCF Done:  E(RB3LYP) =  -3118.03928959     A.U. after   14 cycles
 SCF Done:  E(RB3LYP) =  -3118.03967892     A.U. after   14 cycles
 SCF Done:  E(RB3LYP) =  -3118.03969786     A.U. after    9 cycles
 SCF Done:  E(RB3LYP) =  -3118.03969908     A.U. after    8 cycles
 SCF Done:  E(RB3LYP) =  -3118.03969929     A.U. after   16 cycles
 SCF Done:  E(RB3LYP) =  -3118.03969993     A.U. after   16 cycles
 Optimization completed.
    -- Stationary point found.
 Normal termination of Gaussian 09 at Sun Oct  3 12:54:45 2021.

 ----------------------------------------------------------------------
 #p freq b3lyp/6-31G* volume NMR pop=NPA density=current Geom=AllCheck
 Guess=Read
 ----------------------------------------------------------------------

 COc1ccc(cc1)[Mg]Br_conf_0
 -------------------------
 Redundant internal coordinates taken from checkpoint file:
 C7H7BrMgO_3f09_conf_0.chk
 Charge =  0 Multiplicity = 1

 SCF Done:  E(RB3LYP) =  -3118.03969993     A.U. after    1 cycles

  1  C    Isotropic =   137.8339   Anisotropy =    64.6350

  2  O    Isotropic =   234.4010   Anisotropy =    79.6362

  3  C    Isotropic =    37.5844   Anisotropy =   132.8854

  4  C    Isotropic =    78.0904   Anisotropy =   133.6857

  5  C    Isotropic =    54.5946   Anisotropy =   159.9019

  6  C    Isotropic =    61.5008   Anisotropy =   180.1263

  7  C    Isotropic =    54.1635   Anisotropy =   160.3821

  8  C    Isotropic =    85.9715   Anisotropy =   141.1343

  9  Mg   Isotropic =   516.2122   Anisotropy =   277.7997

 10  Br   Isotropic =  2948.7996   Anisotropy =   248.1875

 11  H    Isotropic =    28.3472   Anisotropy =     7.8656

 12  H    Isotropic =    28.7067   Anisotropy =     7.9482

 13  H    Isotropic =    28.7087   Anisotropy =     7.9437

 14  H    Isotropic =    25.6518   Anisotropy =     6.5000

 15  H    Isotropic =    24.7665   Anisotropy =     7.6659

 16  H    Isotropic =    24.7544   Anisotropy =     8.1033

 17  H    Isotropic =    25.9367   Anisotropy =     7.9059

  Exact polarizability: 191.692  -2.701 105.315   0.011   0.010  64.250
 Approx polarizability: 252.239   1.467 177.403   0.008   0.020  94.175

                     1                      2                      3
                     A                      A                      A
 Frequencies --    37.4187                39.4823                93.4019
 Red. masses --     6.6359                 7.5297                 3.7968
 Frc consts  --     0.0055                 0.0069                 0.0195
 IR Inten    --     0.3903                 2.0890                10.1464

                     4                      5                      6
                     A                      A                      A
 Frequencies --   156.5023               164.9670               174.8310
 Red. masses --     7.2426                10.1610                12.1406
 Frc consts  --     0.1045                 0.1629                 0.2186
 IR Inten    --    10.5806                 7.5508                21.0348

                     7                      8                      9
                     A                      A                      A
 Frequencies --   239.0120               271.4536               302.6870
 Red. masses --     1.3114                 3.3888                 3.3020
 Frc consts  --     0.0441                 0.1471                 0.1782
 IR Inten    --     7.8947                 3.4649                20.0489

                    10                     11                     12
                     A                      A                      A
 Frequencies --   407.7718               433.2190               504.4672
 Red. masses --     2.9723                 7.7871                 5.6195
 Frc consts  --     0.2912                 0.8611                 0.8426
 IR Inten    --     0.0209                42.0966                82.7295

                    13                     14                     15
                     A                      A                      A
 Frequencies --   533.9354               613.1618               646.2563
 Red. masses --     2.7903                 6.8557                 7.1516
 Frc consts  --     0.4687                 1.5186                 1.7598
 IR Inten    --     9.8519                13.1050                 0.0021

                    16                     17                     18
                     A                      A                      A
 Frequencies --   723.3614               808.6901               822.7221
 Red. masses --     3.6153                 5.7741                 1.5521
 Frc consts  --     1.1146                 2.2249                 0.6190
 IR Inten    --     0.0096                11.1058                33.5132

                    19                     20                     21
                     A                      A                      A
 Frequencies --   841.2757               945.7342               963.8231
 Red. masses --     1.3155                 1.3058                 1.3129
 Frc consts  --     0.5486                 0.6881                 0.7186
 IR Inten    --     8.1335                 0.5180                 0.3915

                    22                     23                     24
                     A                      A                      A
 Frequencies --  1023.4483              1068.9811              1093.6035
 Red. masses --     4.2640                 6.5577                 2.9022
 Frc consts  --     2.6315                 4.4151                 2.0450
 IR Inten    --     0.0445                19.9860                55.5259

                    25                     26                     27
                     A                      A                      A
 Frequencies --  1133.7898              1185.3044              1218.1390
 Red. masses --     1.5193                 1.2703                 1.3873
 Frc consts  --     1.1507                 1.0515                 1.2128
 IR Inten    --     3.5647                 0.6783                 4.1009

                    28                     29                     30
                     A                      A                      A
 Frequencies --  1223.4417              1292.5663              1322.6905
 Red. masses --     1.2290                 4.7017                 3.8055
 Frc consts  --     1.0838                 4.6282                 3.9227
 IR Inten    --    72.8507               158.5736               197.1291

                    31                     32                     33
                     A                      A                      A
 Frequencies --  1357.3044              1435.2752              1499.1221
 Red. masses --     1.4033                 2.6019                 1.1933
 Frc consts  --     1.5232                 3.1581                 1.5800
 IR Inten    --    11.1843                 5.5342                14.2855

                    34                     35                     36
                     A                      A                      A
 Frequencies --  1521.1436              1534.2124              1544.9725
 Red. masses --     1.0482                 1.1012                 1.9655
 Frc consts  --     1.4291                 1.5272                 2.7642
 IR Inten    --     5.2351                53.5985                15.2941

                    37                     38                     39
                     A                      A                      A
 Frequencies --  1607.1404              1643.4203              3026.3698
 Red. masses --     5.9446                 5.1682                 1.0346
 Frc consts  --     9.0465                 8.2240                 5.5831
 IR Inten    --    15.5076               155.4652                58.8247

                    40                     41                     42
                     A                      A                      A
 Frequencies --  3085.4868              3140.6508              3145.1095
 Red. masses --     1.1067                 1.0885                 1.0884
 Frc consts  --     6.2077                 6.3256                 6.3434
 IR Inten    --    43.4165                18.7987                24.7453

                    43                     44                     45
                     A                      A                      A
 Frequencies --  3157.4255              3205.3342              3216.2863
 Red. masses --     1.0999                 1.0922                 1.0906
 Frc consts  --     6.4603                 6.6117                 6.6471
 IR Inten    --    28.0806                13.0055                18.5747

 - Thermochemistry -
 -------------------
 Temperature   298.150 Kelvin.  Pressure   1.00000 Atm.
 Atom     1 has atomic number  6 and mass  12.00000

 Molecular mass:   209.95307 amu.
 Principal axes and moments of inertia in atomic units:
                           1         2         3
     Eigenvalues --   378.947398702.619189070.04511
           X            0.99996  -0.00843   0.00002
           Y            0.00843   0.99996   0.00001
           Z           -0.00002  -0.00001   1.00000
 This molecule is an asymmetric top.
 Rotational symmetry number  1.
 Rotational temperatures (Kelvin)      0.22856     0.00995     0.00955
 Rotational constants (GHZ):           4.76251     0.20738     0.19898
 Zero-point vibrational energy     325416.5 (Joules/Mol)
                                   77.77641 (Kcal/Mol)
 Warning -- explicit consideration of  14 degrees of freedom as
           vibrations may cause significant error
 Vibrational temperatures:     53.84    56.81   134.38   225.17   237.35
          (Kelvin)            251.54   343.88   390.56   435.50   586.69
                              623.30   725.81   768.21   882.20   929.82
                             1040.75  1163.52  1183.71  1210.41  1360.70
                             1386.72  1472.51  1538.02  1573.45  1631.27
                             1705.39  1752.63  1760.26  1859.71  1903.05
                             1952.86  2065.04  2156.90  2188.58  2207.39
                             2222.87  2312.31  2364.51  4354.27  4439.32
                             4518.69  4525.11  4542.83  4611.76  4627.51

 Zero-point correction=                           0.123945 (Hartree/Particle)
 Thermal correction to Energy=                    0.134386
 Thermal correction to Enthalpy=                  0.135330
 Thermal correction to Gibbs Free Energy=         0.085131
 Sum of electronic and zero-point Energies=          -3117.915755
 Sum of electronic and thermal Energies=             -3117.905314
 Sum of electronic and thermal Enthalpies=           -3117.904370
 Sum of electronic and thermal Free Energies=        -3117.954569

                     E (Thermal)             CV                S
                      KCal/Mol        Cal/Mol-Kelvin    Cal/Mol-Kelvin
 Total                   84.328             36.067            105.652
 Electronic               0.000              0.000              0.000
 Translational            0.889              2.981             41.929
 Rotational               0.889              2.981             31.770
 Vibrational             82.551             30.105             31.953
 Vibration     1          0.594              1.982              5.391
 Vibration     2          0.594              1.981              5.285
 Vibration     3          0.602              1.954              3.588
 Vibration     4          0.620              1.895              2.592
 Vibration     5          0.623              1.886              2.492
 Vibration     6          0.627              1.873              2.383
 Vibration     7          0.657              1.781              1.810
 Vibration     8          0.675              1.726              1.587
 Vibration     9          0.694              1.669              1.402
 Vibration    10          0.772              1.453              0.935
 Vibration    11          0.794              1.398              0.848
 Vibration    12          0.860              1.240              0.647
 Vibration    13          0.889              1.175              0.578
 Vibration    14          0.972              1.004              0.428

 Normal termination of Gaussian 09 at Sun Oct  3 13:58:33 2021.
 Gaussian 09:  AM64L-G09RevA.02 11-Jun-2009

 ----------------------------------------------------------------------
 #p TD(NStates=10, Root=1) b3lyp/6-31G* volume pop=NPA density=current
 Geom=AllCheck Guess=Read
 ----------------------------------------------------------------------

 COc1ccc(cc1)[Mg]Br_conf_0
 -------------------------
 Redundant internal coordinates taken from checkpoint file:
 C7H7BrMgO_3f09_conf_0.chk
 Charge =  0 Multiplicity = 1

                         Standard orientation:
 ---------------------------------------------------------------------
 Center     Atomic      Atomic             Coordinates (Angstroms)
 Number     Number       Type             X           Y           Z
 ---------------------------------------------------------------------
      1          6           0        5.422280   -0.746683    0.001362
      2          8           0        4.601829    0.410759   -0.000144
      3          6           0        3.247224    0.242774   -0.000264
      4          6           0        2.486801    1.420992   -0.000041
      5          6           0        1.098364    1.351596   -0.000235
      6          6           0        0.398220    0.122196   -0.000648
      7          6           0        1.197734   -1.036235   -0.000888
      8          6           0        2.596534   -0.995733   -0.000728
      9         12           0       -1.665868    0.025451   -0.000416
     10         35           0       -3.997806   -0.096047    0.000330
     11          1           0        6.451756   -0.383722    0.002724
     12          1           0        5.255775   -1.361176   -0.893296
     13          1           0        5.253191   -1.360658    0.895879
     14          1           0        3.008000    2.374056    0.000300
     15          1           0        0.552631    2.295012   -0.000062
     16          1           0        0.735633   -2.023601   -0.001273
     17          1           0        3.159074   -1.923184   -0.001044
 ---------------------------------------------------------------------

 SCF Done:  E(RB3LYP) =  -3118.03969993     A.U. after    1 cycles

 Excitation energies and oscillator strengths:

 Excited State   1:      Singlet-A      4.0205 eV  308.38 nm  f=0.0090  <S**2>=0.000
      52 -> 53         0.70388
 This state for optimization and/or second-order correction.
 Total Energy, E(TD-HF/TD-KS) =  -3117.89194782
 Copying the excited state density for this state as the 1-particle RhoCI density.

 Excited State   2:      Singlet-A      4.8194 eV  257.26 nm  f=0.0001  <S**2>=0.000
      51 -> 53         0.67862
      52 -> 55        -0.19336

 Excited State   3:      Singlet-A      4.8584 eV  255.19 nm  f=0.0000  <S**2>=0.000
      51 -> 53         0.19439
      52 -> 55         0.67801

 Excited State   4:      Singlet-A      4.9030 eV  252.87 nm  f=0.2343  <S**2>=0.000
      52 -> 54         0.69096

 Excited State   5:      Singlet-A      5.0570 eV  245.17 nm  f=0.0086  <S**2>=0.000
      51 -> 54        -0.41545
      51 -> 57         0.14308
      52 -> 56         0.54862

 Excited State   6:      Singlet-A      5.4225 eV  228.65 nm  f=0.5010  <S**2>=0.000
      50 -> 53         0.65509
      52 -> 57         0.22583

 Excited State   7:      Singlet-A      5.4455 eV  227.68 nm  f=0.0297  <S**2>=0.000
      49 -> 53         0.68531
      50 -> 54         0.16791

 Excited State   8:      Singlet-A      5.4624 eV  226.98 nm  f=0.0383  <S**2>=0.000
      48 -> 53         0.70059

 Excited State   9:      Singlet-A      5.6651 eV  218.86 nm  f=0.0000  <S**2>=0.000
      50 -> 54        -0.10975
      51 -> 55         0.69740

 Excited State  10:      Singlet-A      5.7158 eV  216.91 nm  f=0.0511  <S**2>=0.000
      49 -> 53        -0.16750
      50 -> 54         0.67213
      51 -> 55         0.10929

 The electronic state is 1-A.
 Alpha  occ. eigenvalues -- -482.87725 -61.83954 -56.35686 -56.35548 -56.35543
 Alpha  occ. eigenvalues --  -46.84141 -19.17891 -10.24690 -10.24261 -10.19123
 Alpha  occ. eigenvalues --  -10.18945 -10.18546 -10.18117 -10.16528  -8.54865
 Alpha  occ. eigenvalues --   -6.49610  -6.49215  -6.49204  -3.12950  -2.61288
 Alpha  occ. eigenvalues --   -2.61165  -2.61157  -2.60841  -2.60841  -1.87589
 Alpha  occ. eigenvalues --   -1.87521  -1.86925  -1.06449  -0.84072  -0.74980
 Alpha  occ. eigenvalues --   -0.73812  -0.72362  -0.68762  -0.60329  -0.57907
 Alpha  occ. eigenvalues --   -0.53258  -0.47444  -0.46931  -0.45208  -0.43740
 Alpha  occ. eigenvalues --   -0.41614  -0.41008  -0.37438  -0.35577  -0.32738
 Alpha  occ. eigenvalues --   -0.32259  -0.31598  -0.27905  -0.27861  -0.26317
 Alpha  occ. eigenvalues --   -0.24762  -0.21780
 Alpha virt. eigenvalues --   -0.04216  -0.02007  -0.01264   0.00179   0.02865
 Alpha virt. eigenvalues --    0.06948   0.09990   0.10928   0.12659   0.13062
 Alpha virt. eigenvalues --    0.14300   0.14419   0.15465   0.16546   0.17258

 Mulliken atomic charges:
              1
     1  C   -0.250650
     2  O   -0.430052
     3  C    0.392035
     4  C   -0.127933
     5  C   -0.179766
     6  C    0.029674
     7  C   -0.172964
     8  C   -0.156559
     9  Mg  -0.100396
    10  Br  -0.266134
    11  H    0.205109
    12  H    0.192726
    13  H    0.192716
    14  H    0.177133
    15  H    0.165357
    16  H    0.166941
    17  H    0.162762
 Sum of Mulliken atomic charges =  -0.00000

 Dipole moment (field-independent basis, Debye):
    X=             16.5015    Y=             -0.8567    Z=              0.0032  Tot=             16.5237
 Quadrupole moment (field-independent basis, Debye-Ang):
   XX=            -72.6121   YY=            -71.7359   ZZ=            -80.0223
   XY=             -7.8947   XZ=              0.0096   YZ=              0.0011

 Summary of Natural Population Analysis:

                                       Natural Population
                Natural  -----------------------------------------------
    Atom  No    Charge         Core      Valence    Rydberg      Total
 -----------------------------------------------------------------------
      C    1   -0.33454      1.99941     4.32083    0.01429     6.33454
      O    2   -0.41290      1.99975     6.40169    0.01146     8.41290
      C    3    0.39521      1.99878     3.58469    0.02132     5.60479
      C    4   -0.21091      1.99903     4.19751    0.01437     6.21091
      C    5   -0.23438      1.99917     4.21956    0.01565     6.23438
      C    6   -0.37999      1.99930     4.34664    0.03406     6.37999
      C    7   -0.19525      1.99917     4.18010    0.01598     6.19525
      C    8   -0.28573      1.99902     4.27470    0.01201     6.28573
     Mg    9    0.62209      9.99831     1.34958    0.03002    11.37791
     Br   10   -0.66203     27.99974     7.65182    0.01047    35.66203
      H   11    0.24798      0.00000     0.75168    0.00034     0.75202
      H   12    0.22891      0.00000     0.77008    0.00101     0.77109
      H   13    0.22890      0.00000     0.77009    0.00101     0.77110
      H   14    0.25815      0.00000     0.74051    0.00134     0.74185
      H   15    0.24490      0.00000     0.75262    0.00247     0.75510
      H   16    0.24189      0.00000     0.75534    0.00276     0.75811
      H   17    0.24765      0.00000     0.75112    0.00123     0.75235
 =======================================================================
   * Total *   -0.00005     53.99168    49.81856    0.18981   104.00005

 Normal termination of Gaussian 09 at Sun Oct  3 15:27:30 2021.
