 Gaussian 09, Revision A.02,

 -----------------------------------
 #p opt b3lyp/6-31G* scf=(xqc,tight)
 -----------------------------------

 ------------------------
 Br[Zn]c1ccc(cc1)C_conf_0
 ------------------------
 Symbolic Z-matrix:
 Charge =  0 Multiplicity = 1

 SCF Done:  E(RB3LYP) =  -4621.85142320     A.U. after   15 cycles
 SCF Done:  E(RB3LYP) =  -4621.86160480     A.U. after   12 cycles
 SCF Done:  E(RB3LYP) =  -4621.86289393     A.U. after   10 cycles
 SCF Done:  E(RB3LYP) =  -4621.86292895     A.U. after    9 cycles
 SCF Done:  E(RB3LYP) =  -4621.86293046     A.U. after    8 cycles
 SCF Done:  E(RB3LYP) =  -4621.86293077     A.U. after    7 cycles
 SCF Done:  E(RB3LYP) =  -4621.86293083     A.U. after    7 cycles
 SCF Done:  E(RB3LYP) =  -4621.86293086     A.U. after   15 cycles
 SCF Done:  E(RB3LYP) =  -4621.86293086     A.U. after    6 cycles
 Optimization completed.
    -- Stationary point found.
 Normal termination of Gaussian 09 at Sun Oct  3 06:35:38 2021.

 ----------------------------------------------------------------------
 #p freq b3lyp/6-31G* volume NMR pop=NPA density=current Geom=AllCheck
 Guess=Read
 ----------------------------------------------------------------------

 Br[Zn]c1ccc(cc1)C_conf_0
 ------------------------
 Redundant internal coordinates taken from checkpoint file:
 C7H7BrZn_7dbd_conf_0.chk
 Charge =  0 Multiplicity = 1

 SCF Done:  E(RB3LYP) =  -4621.86293086     A.U. after    1 cycles

  1  Br   Isotropic =  2862.5564   Anisotropy =   365.8101

  2  Zn   Isotropic =  1851.2149   Anisotropy =   961.2211

  3  C    Isotropic =    59.6211   Anisotropy =   171.2538

  4  C    Isotropic =    58.3002   Anisotropy =   159.8336

  5  C    Isotropic =    67.1153   Anisotropy =   144.2306

  6  C    Isotropic =    55.8071   Anisotropy =   183.9552

  7  C    Isotropic =    67.7002   Anisotropy =   153.2984

  8  C    Isotropic =    58.5593   Anisotropy =   160.1722

  9  C    Isotropic =   167.5109   Anisotropy =    35.1186

 10  H    Isotropic =    24.8457   Anisotropy =     9.3015

 11  H    Isotropic =    25.2845   Anisotropy =     6.8855

 12  H    Isotropic =    25.1577   Anisotropy =     7.3800

 13  H    Isotropic =    24.7785   Anisotropy =     9.3286

 14  H    Isotropic =    30.4796   Anisotropy =     7.0314

 15  H    Isotropic =    29.7839   Anisotropy =     7.8510

 16  H    Isotropic =    29.7842   Anisotropy =     7.8498

  Exact polarizability: 182.476  -0.670  99.601   0.009  -0.000  57.771
 Approx polarizability: 244.411  -1.235 171.542   0.015  -0.000  87.870

 ******    1 imaginary frequencies (negative Signs) ******

                     1                      2                      3
                     A                      A                      A
 Frequencies --   -31.7084                34.9203                38.4863
 Red. masses --     1.0516                 9.9960                 8.8782
 Frc consts  --     0.0006                 0.0072                 0.0077
 IR Inten    --     0.1702                 0.8906                 0.4171

                     4                      5                      6
                     A                      A                      A
 Frequencies --   114.5421               182.8810               202.9768
 Red. masses --     5.9970                 7.1157                10.4787
 Frc consts  --     0.0464                 0.1402                 0.2544
 IR Inten    --     6.1990                 5.6077                 0.7210

                     7                      8                      9
                     A                      A                      A
 Frequencies --   256.6429               349.4629               368.4199
 Red. masses --     4.1483                 2.6513                22.3075
 Frc consts  --     0.1610                 0.1908                 1.7840
 IR Inten    --     2.0464                 1.0463                48.0174

                    10                     11                     12
                     A                      A                      A
 Frequencies --   404.5125               484.9918               600.7144
 Red. masses --     2.8824                 3.0816                 5.3641
 Frc consts  --     0.2779                 0.4271                 1.1405
 IR Inten    --     0.0010                12.7453                 9.1043

                    13                     14                     15
                     A                      A                      A
 Frequencies --   651.1893               709.7892               797.9073
 Red. masses --     6.9801                 3.8877                 1.2620
 Frc consts  --     1.7439                 1.1540                 0.4734
 IR Inten    --     0.0065                 0.5203                26.7901

                    16                     17                     18
                     A                      A                      A
 Frequencies --   811.6927               861.3958               958.9495
 Red. masses --     5.1367                 1.2528                 1.2404
 Frc consts  --     1.9939                 0.5477                 0.6721
 IR Inten    --     0.2590                 0.0043                 0.0033

                    19                     20                     21
                     A                      A                      A
 Frequencies --   963.8566              1014.2719              1036.6897
 Red. masses --     1.3543                 1.4645                 3.5788
 Frc consts  --     0.7413                 0.8876                 2.2661
 IR Inten    --     0.0006                 3.0640                 6.4030

                    22                     23                     24
                     A                      A                      A
 Frequencies --  1075.1801              1115.4651              1144.8073
 Red. masses --     1.5337                 3.7303                 1.4238
 Frc consts  --     1.0446                 2.7347                 1.0995
 IR Inten    --     4.7588                 9.5683                 1.3561

                    25                     26                     27
                     A                      A                      A
 Frequencies --  1228.7137              1242.9546              1318.1969
 Red. masses --     1.1953                 2.5780                 4.1769
 Frc consts  --     1.0632                 2.3467                 4.2763
 IR Inten    --     7.0618                 2.7243                 2.6239

                    28                     29                     30
                     A                      A                      A
 Frequencies --  1351.4839              1432.9709              1441.2149
 Red. masses --     1.5085                 2.3278                 1.2498
 Frc consts  --     1.6234                 2.8162                 1.5295
 IR Inten    --     1.3117                 6.9691                 0.0584

                    31                     32                     33
                     A                      A                      A
 Frequencies --  1514.5642              1519.5430              1545.6260
 Red. masses --     1.0443                 1.1054                 2.2366
 Frc consts  --     1.4114                 1.5038                 3.1480
 IR Inten    --     5.6960                 9.7779                 1.8052

                    34                     35                     36
                     A                      A                      A
 Frequencies --  1608.7422              1655.5310              3044.3492
 Red. masses --     4.8315                 5.5212                 1.0375
 Frc consts  --     7.3672                 8.9157                 5.6651
 IR Inten    --     0.2059                17.0181                31.4685

                    37                     38                     39
                     A                      A                      A
 Frequencies --  3096.2570              3126.9552              3159.1343
 Red. masses --     1.1008                 1.1010                 1.0866
 Frc consts  --     6.2178                 6.3426                 6.3894
 IR Inten    --    19.1407                16.9389                 9.1268

                    40                     41                     42
                     A                      A                      A
 Frequencies --  3160.7714              3179.8766              3183.3031
 Red. masses --     1.0871                 1.0937                 1.0940
 Frc consts  --     6.3991                 6.5157                 6.5316
 IR Inten    --     5.7866                45.7723                18.0229

 - Thermochemistry -
 -------------------
 Temperature   298.150 Kelvin.  Pressure   1.00000 Atm.
 Atom     1 has atomic number 35 and mass  78.91834

 Molecular mass:   233.90226 amu.
 Principal axes and moments of inertia in atomic units:
                           1         2         3
     Eigenvalues --   324.610166375.653036689.07239
           X            1.00000  -0.00006   0.00001
           Y            0.00006   1.00000  -0.00000
           Z           -0.00001   0.00000   1.00000
 This molecule is an asymmetric top.
 Rotational symmetry number  1.
 Rotational temperatures (Kelvin)      0.26682     0.01359     0.01295
 Rotational constants (GHZ):           5.55972     0.28307     0.26980
    1 imaginary frequencies ignored.
 Zero-point vibrational energy     310968.9 (Joules/Mol)
                                   74.32334 (Kcal/Mol)
 Warning -- explicit consideration of  11 degrees of freedom as
           vibrations may cause significant error
 Vibrational temperatures:     50.24    55.37   164.80   263.12   292.04
          (Kelvin)            369.25   502.80   530.07   582.00   697.79
                              864.29   936.92  1021.23  1148.01  1167.84
                             1239.35  1379.71  1386.77  1459.31  1491.56
                             1546.94  1604.90  1647.12  1767.84  1788.33
                             1896.59  1944.48  2061.72  2073.58  2179.12
                             2186.28  2223.81  2314.62  2381.94  4380.13
                             4454.82  4498.99  4545.28  4547.64  4575.13
                             4580.06

 Zero-point correction=                           0.118442 (Hartree/Particle)
 Thermal correction to Energy=                    0.127496
 Thermal correction to Enthalpy=                  0.128440
 Thermal correction to Gibbs Free Energy=         0.081050
 Sum of electronic and zero-point Energies=          -4621.744489
 Sum of electronic and thermal Energies=             -4621.735435
 Sum of electronic and thermal Enthalpies=           -4621.734491
 Sum of electronic and thermal Free Energies=        -4621.781881

                     E (Thermal)             CV                S
                      KCal/Mol        Cal/Mol-Kelvin    Cal/Mol-Kelvin
 Total                   80.005             31.249             99.741
 Electronic               0.000              0.000              0.000
 Translational            0.889              2.981             42.251
 Rotational               0.889              2.981             31.005
 Vibrational             78.227             25.288             26.485
 Vibration     1          0.594              1.983              5.528
 Vibration     2          0.594              1.982              5.336
 Vibration     3          0.607              1.937              3.190
 Vibration     4          0.630              1.863              2.299
 Vibration     5          0.639              1.836              2.106
 Vibration     6          0.666              1.752              1.685
 Vibration     7          0.727              1.576              1.169
 Vibration     8          0.741              1.537              1.086
 Vibration     9          0.770              1.460              0.946
 Vibration    10          0.841              1.283              0.697
 Vibration    11          0.959              1.030              0.448

 Normal termination of Gaussian 09 at Sun Oct  3 07:51:19 2021.
 Gaussian 09:  AM64L-G09RevA.02 11-Jun-2009

 ----------------------------------------------------------------------
 #p TD(NStates=10, Root=1) b3lyp/6-31G* volume pop=NPA density=current
 Geom=AllCheck Guess=Read
 ----------------------------------------------------------------------

 Br[Zn]c1ccc(cc1)C_conf_0
 ------------------------
 Redundant internal coordinates taken from checkpoint file:
 C7H7BrZn_7dbd_conf_0.chk
 Charge =  0 Multiplicity = 1

                         Standard orientation:
 ---------------------------------------------------------------------
 Center     Atomic      Atomic             Coordinates (Angstroms)
 Number     Number       Type             X           Y           Z
 ---------------------------------------------------------------------
      1         35           0       -3.209269    0.000683    0.000223
      2         30           0       -0.991040   -0.001994   -0.000164
      3          6           0        0.905468   -0.000805   -0.000588
      4          6           0        1.636444    1.198624   -0.000371
      5          6           0        3.032485    1.202159   -0.000028
      6          6           0        3.756547    0.004981    0.000173
      7          6           0        3.036101   -1.197906   -0.000027
      8          6           0        1.642835   -1.199415   -0.000370
      9          6           0        5.267170    0.000541    0.000557
     10          1           0        1.121348    2.157674   -0.000567
     11          1           0        3.567239    2.149733    0.000116
     12          1           0        3.574181   -2.144042    0.000117
     13          1           0        1.130169   -2.159778   -0.000568
     14          1           0        5.670543    1.017866    0.001221
     15          1           0        5.665138   -0.516810   -0.881312
     16          1           0        5.664703   -0.517811    0.882030
 ---------------------------------------------------------------------

 SCF Done:  E(RB3LYP) =  -4621.86293086     A.U. after    1 cycles

 Excitation energies and oscillator strengths:

 Excited State   1:      Singlet-A      5.1529 eV  240.61 nm  f=0.0029  <S**2>=0.000
      56 -> 58         0.58037
      57 -> 61        -0.39600
 This state for optimization and/or second-order correction.
 Total Energy, E(TD-HF/TD-KS) =  -4621.67356684
 Copying the excited state density for this state as the 1-particle RhoCI density.

 Excited State   2:      Singlet-A      5.3361 eV  232.35 nm  f=0.0043  <S**2>=0.000
      57 -> 59         0.69983

 Excited State   3:      Singlet-A      5.4180 eV  228.84 nm  f=0.3170  <S**2>=0.000
      56 -> 61         0.14934
      57 -> 58         0.68086

 Excited State   4:      Singlet-A      5.5430 eV  223.68 nm  f=0.0000  <S**2>=0.000
      56 -> 59         0.17082
      57 -> 60         0.68339

 Excited State   5:      Singlet-A      5.6121 eV  220.92 nm  f=0.0000  <S**2>=0.000
      56 -> 59         0.68463
      57 -> 60        -0.17124

 Excited State   6:      Singlet-A      5.8226 eV  212.94 nm  f=0.0005  <S**2>=0.000
      56 -> 60         0.70607

 Excited State   7:      Singlet-A      5.9977 eV  206.72 nm  f=0.0078  <S**2>=0.000
      53 -> 58         0.69418

 Excited State   8:      Singlet-A      6.0810 eV  203.89 nm  f=0.0000  <S**2>=0.000
      55 -> 58         0.69664
      55 -> 62         0.10628

 Excited State   9:      Singlet-A      6.1801 eV  200.62 nm  f=0.0481  <S**2>=0.000
      53 -> 60         0.25794
      54 -> 58        -0.20078
      56 -> 58         0.32235
      56 -> 62         0.30986
      57 -> 61         0.42263

 Excited State  10:      Singlet-A      6.2000 eV  199.98 nm  f=0.0078  <S**2>=0.000
      53 -> 59        -0.10752
      54 -> 58         0.59992
      55 -> 60        -0.23886
      56 -> 58         0.10296
      56 -> 61        -0.11632
      56 -> 62         0.10209
      57 -> 61         0.13009

 The electronic state is 1-A.
 Alpha  occ. eigenvalues -- -482.88839-347.29256 -61.85118 -56.36808 -56.36649
 Alpha  occ. eigenvalues --  -56.36642 -42.26279 -37.24738 -37.24625 -37.24544
 Alpha  occ. eigenvalues --  -10.20312 -10.19598 -10.19579 -10.19005 -10.18985
 Alpha  occ. eigenvalues --  -10.18863 -10.18855  -8.56082  -6.50949  -6.50347
 Alpha  occ. eigenvalues --   -6.50332  -4.83726  -3.22874  -3.22757  -3.22577
 Alpha  occ. eigenvalues --   -2.62604  -2.62422  -2.62410  -2.61931  -2.61930
 Alpha  occ. eigenvalues --   -0.85479  -0.77000  -0.74536  -0.74161  -0.68351
 Alpha  occ. eigenvalues --   -0.60681  -0.58234  -0.51448  -0.49339  -0.48907
 Alpha  occ. eigenvalues --   -0.48407  -0.48173  -0.48026  -0.45635  -0.44926
 Alpha  occ. eigenvalues --   -0.42338  -0.41994  -0.38831  -0.38161  -0.35529
 Alpha  occ. eigenvalues --   -0.34738  -0.33955  -0.28595  -0.28424  -0.28369
 Alpha  occ. eigenvalues --   -0.25248  -0.24458
 Alpha virt. eigenvalues --   -0.02985  -0.01638  -0.01033  -0.00318   0.02622
 Alpha virt. eigenvalues --    0.08820   0.10892   0.12428   0.12768   0.13286
 Alpha virt. eigenvalues --    0.13493   0.15835   0.18089   0.18300   0.19141

 Mulliken atomic charges:
              1
     1  Br  -0.307400
     2  Zn   0.349112
     3  C   -0.146881
     4  C   -0.146807
     5  C   -0.156117
     6  C    0.161019
     7  C   -0.153470
     8  C   -0.145479
     9  C   -0.528748
    10  H    0.147651
    11  H    0.143567
    12  H    0.143337
    13  H    0.149485
    14  H    0.159088
    15  H    0.165827
    16  H    0.165817
 Sum of Mulliken atomic charges =  -0.00000

 Dipole moment (field-independent basis, Debye):
    X=              5.4068    Y=             -0.0491    Z=             -0.0017  Tot=              5.4071
 Quadrupole moment (field-independent basis, Debye-Ang):
   XX=            -73.5701   YY=            -67.3932   ZZ=            -77.3574
   XY=             -0.1163   XZ=              0.0038   YZ=             -0.0000

 Summary of Natural Population Analysis:

                                       Natural Population
                Natural  -----------------------------------------------
    Atom  No    Charge         Core      Valence    Rydberg      Total
 -----------------------------------------------------------------------
     Br    1   -0.48375     27.99942     7.46388    0.02045    35.48375
     Zn    2    0.82880     17.99735    11.15973    0.01413    29.17120
      C    3   -0.55457      1.99902     4.51381    0.04174     6.55457
      C    4   -0.17771      1.99909     4.15966    0.01896     6.17771
      C    5   -0.16753      1.99905     4.15257    0.01592     6.16753
      C    6   -0.06471      1.99908     4.04954    0.01609     6.06471
      C    7   -0.17825      1.99905     4.16289    0.01631     6.17825
      C    8   -0.16347      1.99909     4.14561    0.01876     6.16347
      C    9   -0.69283      1.99940     4.68572    0.00771     6.69283
      H   10    0.23162      0.00000     0.76749    0.00089     0.76838
      H   11    0.23229      0.00000     0.76655    0.00116     0.76771
      H   12    0.23273      0.00000     0.76611    0.00116     0.76727
      H   13    0.23148      0.00000     0.76763    0.00088     0.76852
      H   14    0.23922      0.00000     0.75998    0.00080     0.76078
      H   15    0.24333      0.00000     0.75494    0.00173     0.75667
      H   16    0.24332      0.00000     0.75495    0.00173     0.75668
 =======================================================================
   * Total *    0.00000     59.99055    53.83105    0.17840   114.00000

 Normal termination of Gaussian 09 at Sun Oct  3 10:46:04 2021.
