 Gaussian 09, Revision A.02,

 -----------------------------------
 #p opt b3lyp/6-31G* scf=(xqc,tight)
 -----------------------------------

 ------------------------
 Br[Mg]c1cccc(c1)C_conf_0
 ------------------------
 Symbolic Z-matrix:
 Charge =  0 Multiplicity = 1

 SCF Done:  E(RB3LYP) =  -3042.81936839     A.U. after   14 cycles
 SCF Done:  E(RB3LYP) =  -3042.83008625     A.U. after   12 cycles
 SCF Done:  E(RB3LYP) =  -3042.83315339     A.U. after   12 cycles
 SCF Done:  E(RB3LYP) =  -3042.82521222     A.U. after   15 cycles
 SCF Done:  E(RB3LYP) =  -3042.83375858     A.U. after   14 cycles
 SCF Done:  E(RB3LYP) =  -3042.83395110     A.U. after   14 cycles
 SCF Done:  E(RB3LYP) =  -3042.83396499     A.U. after    9 cycles
 SCF Done:  E(RB3LYP) =  -3042.83396487     A.U. after    8 cycles
 SCF Done:  E(RB3LYP) =  -3042.83396531     A.U. after    7 cycles
 Optimization completed.
    -- Stationary point found.
 Normal termination of Gaussian 09 at Sun Oct  3 10:52:27 2021.

 ----------------------------------------------------------------------
 #p freq b3lyp/6-31G* volume NMR pop=NPA density=current Geom=AllCheck
 Guess=Read
 ----------------------------------------------------------------------

 Br[Mg]c1cccc(c1)C_conf_0
 ------------------------
 Redundant internal coordinates taken from checkpoint file:
 C7H7BrMg_fb21_conf_0.chk
 Charge =  0 Multiplicity = 1

 SCF Done:  E(RB3LYP) =  -3042.83396531     A.U. after    1 cycles

  1  Br   Isotropic =  2948.2219   Anisotropy =   251.5899

  2  Mg   Isotropic =   517.8846   Anisotropy =   278.6667

  3  C    Isotropic =    51.6370   Anisotropy =   190.0571

  4  C    Isotropic =    58.1824   Anisotropy =   159.5709

  5  C    Isotropic =    68.6618   Anisotropy =   160.3696

  6  C    Isotropic =    65.4928   Anisotropy =   148.2247

  7  C    Isotropic =    59.3718   Anisotropy =   177.2954

  8  C    Isotropic =    54.6700   Anisotropy =   150.1829

  9  C    Isotropic =   167.5716   Anisotropy =    34.8765

 10  H    Isotropic =    24.8950   Anisotropy =     7.3969

 11  H    Isotropic =    25.2839   Anisotropy =     5.2201

 12  H    Isotropic =    25.2313   Anisotropy =     6.6480

 13  H    Isotropic =    24.8060   Anisotropy =    10.2372

 14  H    Isotropic =    30.5578   Anisotropy =     7.0732

 15  H    Isotropic =    29.8572   Anisotropy =     7.5291

 16  H    Isotropic =    29.8569   Anisotropy =     7.5311

  Exact polarizability: 165.874  -0.701 111.851  -0.016  -0.005  61.769
 Approx polarizability: 226.529   2.824 180.663  -0.027  -0.010  91.139

 ******    1 imaginary frequencies (negative Signs) ******

                     1                      2                      3
                     A                      A                      A
 Frequencies --   -48.0023                38.6615                52.5991
 Red. masses --     1.0329                 6.1533                 6.9110
 Frc consts  --     0.0014                 0.0054                 0.0113
 IR Inten    --     0.1184                 2.3016                 1.7267

                     4                      5                      6
                     A                      A                      A
 Frequencies --   167.6338               179.5774               186.0700
 Red. masses --    10.1597                 7.3722                10.9441
 Frc consts  --     0.1682                 0.1401                 0.2232
 IR Inten    --    20.4329                35.7705                 8.6667

                     7                      8                      9
                     A                      A                      A
 Frequencies --   213.6828               352.9249               423.6903
 Red. masses --     3.0265                 2.6791                 3.0250
 Frc consts  --     0.0814                 0.1966                 0.3199
 IR Inten    --     0.6438                 1.4609                 6.9377

                    10                     11                     12
                     A                      A                      A
 Frequencies --   482.5498               495.3487               532.2712
 Red. masses --    16.7119                 3.8399                 5.1353
 Frc consts  --     2.2928                 0.5551                 0.8572
 IR Inten    --   111.2536                 1.6979                 2.1447

                    13                     14                     15
                     A                      A                      A
 Frequencies --   679.4059               720.2279               786.0799
 Red. masses --     7.3171                 2.6610                 1.3352
 Frc consts  --     1.9900                 0.8133                 0.4861
 IR Inten    --     8.3276                 8.7941                20.4317

                    16                     17                     18
                     A                      A                      A
 Frequencies --   838.1650               911.2712               918.1619
 Red. masses --     5.1218                 1.3059                 1.3222
 Frc consts  --     2.1200                 0.6389                 0.6567
 IR Inten    --     1.2990                 0.4221                 0.0549

                    19                     20                     21
                     A                      A                      A
 Frequencies --   978.2665              1005.9744              1021.5888
 Red. masses --     1.2990                 3.3254                 1.8319
 Frc consts  --     0.7324                 1.9827                 1.1264
 IR Inten    --     0.0674                 8.3668                 2.3140

                    22                     23                     24
                     A                      A                      A
 Frequencies --  1076.2920              1090.1891              1143.3729
 Red. masses --     1.5206                 2.6361                 1.5592
 Frc consts  --     1.0379                 1.8460                 1.2010
 IR Inten    --     4.3709                 2.7482                 6.4486

                    25                     26                     27
                     A                      A                      A
 Frequencies --  1214.6436              1239.8775              1309.0670
 Red. masses --     1.2363                 2.4004                 5.2244
 Frc consts  --     1.0747                 2.1741                 5.2748
 IR Inten    --     0.4436                 1.9528                 4.5741

                    28                     29                     30
                     A                      A                      A
 Frequencies --  1364.2436              1429.8684              1443.1968
 Red. masses --     1.3481                 2.5020                 1.2559
 Frc consts  --     1.4783                 3.0139                 1.5412
 IR Inten    --     0.7297                 8.1941                 0.4026

                    31                     32                     33
                     A                      A                      A
 Frequencies --  1515.5393              1515.8833              1530.5404
 Red. masses --     1.5586                 1.0444                 1.3174
 Frc consts  --     2.1092                 1.4140                 1.8182
 IR Inten    --     7.4138                 5.4217                 4.2684

                    34                     35                     36
                     A                      A                      A
 Frequencies --  1621.4376              1638.6024              3042.0371
 Red. masses --     4.7830                 4.9655                 1.0374
 Frc consts  --     7.4088                 7.8552                 5.6562
 IR Inten    --     0.5087                 5.5206                33.1105

                    37                     38                     39
                     A                      A                      A
 Frequencies --  3093.6742              3122.0596              3124.0425
 Red. masses --     1.1009                 1.0974                 1.0921
 Frc consts  --     6.2081                 6.3023                 6.2795
 IR Inten    --    21.4953                13.8488                31.0934

                    40                     41                     42
                     A                      A                      A
 Frequencies --  3142.8591              3172.0927              3190.9672
 Red. masses --     1.0875                 1.0880                 1.0956
 Frc consts  --     6.3291                 6.4500                 6.5729
 IR Inten    --    14.8528                18.0042                41.6800

 - Thermochemistry -
 -------------------
 Temperature   298.150 Kelvin.  Pressure   1.00000 Atm.
 Atom     1 has atomic number 35 and mass  78.91834

 Molecular mass:   193.95816 amu.
 Principal axes and moments of inertia in atomic units:
                           1         2         3
     Eigenvalues --   594.177576134.239846717.22059
           X            0.99992  -0.01286  -0.00001
           Y            0.01286   0.99992  -0.00001
           Z            0.00001   0.00001   1.00000
 This molecule is an asymmetric top.
 Rotational symmetry number  1.
 Warning -- assumption of classical behavior for rotation
           may cause significant error
 Rotational temperatures (Kelvin)      0.14577     0.01412     0.01289
 Rotational constants (GHZ):           3.03738     0.29421     0.26867
    1 imaginary frequencies ignored.
 Zero-point vibrational energy     311056.8 (Joules/Mol)
                                   74.34436 (Kcal/Mol)
 Warning -- explicit consideration of  11 degrees of freedom as
           vibrations may cause significant error
 Vibrational temperatures:     55.63    75.68   241.19   258.37   267.71
          (Kelvin)            307.44   507.78   609.60   694.28   712.70
                              765.82   977.51  1036.25  1130.99  1205.93
                             1311.11  1321.03  1407.51  1447.37  1469.84
                             1548.54  1568.54  1645.06  1747.60  1783.90
                             1883.45  1962.84  2057.26  2076.44  2180.52
                             2181.02  2202.10  2332.88  2357.58  4376.81
                             4451.10  4491.94  4494.79  4521.87  4563.93
                             4591.08

 Zero-point correction=                           0.118475 (Hartree/Particle)
 Thermal correction to Energy=                    0.127381
 Thermal correction to Enthalpy=                  0.128325
 Thermal correction to Gibbs Free Energy=         0.081617
 Sum of electronic and zero-point Energies=          -3042.715490
 Sum of electronic and thermal Energies=             -3042.706584
 Sum of electronic and thermal Enthalpies=           -3042.705640
 Sum of electronic and thermal Free Energies=        -3042.752349

                     E (Thermal)             CV                S
                      KCal/Mol        Cal/Mol-Kelvin    Cal/Mol-Kelvin
 Total                   79.933             31.039             98.307
 Electronic               0.000              0.000              0.000
 Translational            0.889              2.981             41.693
 Rotational               0.889              2.981             31.571
 Vibrational             78.155             25.078             25.043
 Vibration     1          0.594              1.981              5.327
 Vibration     2          0.596              1.977              4.717
 Vibration     3          0.624              1.882              2.462
 Vibration     4          0.629              1.867              2.333
 Vibration     5          0.632              1.859              2.267
 Vibration     6          0.644              1.820              2.012
 Vibration     7          0.729              1.569              1.153
 Vibration     8          0.786              1.419              0.880
 Vibration     9          0.839              1.289              0.703
 Vibration    10          0.851              1.260              0.670
 Vibration    11          0.887              1.179              0.582

 Normal termination of Gaussian 09 at Sun Oct  3 11:50:11 2021.
 Gaussian 09:  AM64L-G09RevA.02 11-Jun-2009

 ----------------------------------------------------------------------
 #p TD(NStates=10, Root=1) b3lyp/6-31G* volume pop=NPA density=current
 Geom=AllCheck Guess=Read
 ----------------------------------------------------------------------

 Br[Mg]c1cccc(c1)C_conf_0
 ------------------------
 Redundant internal coordinates taken from checkpoint file:
 C7H7BrMg_fb21_conf_0.chk
 Charge =  0 Multiplicity = 1

                         Standard orientation:
 ---------------------------------------------------------------------
 Center     Atomic      Atomic             Coordinates (Angstroms)
 Number     Number       Type             X           Y           Z
 ---------------------------------------------------------------------
      1         35           0       -3.430203   -0.165080   -0.000179
      2         12           0       -1.112247    0.110491    0.000372
      3          6           0        0.946725    0.347898    0.000645
      4          6           0        1.548936    1.624499    0.000291
      5          6           0        2.935863    1.773593   -0.000263
      6          6           0        3.760874    0.647437   -0.000466
      7          6           0        3.211943   -0.638977   -0.000078
      8          6           0        1.813417   -0.762078    0.000460
      9          6           0        4.093934   -1.867424   -0.000171
     10          1           0        0.935945    2.525588    0.000492
     11          1           0        3.378028    2.767426   -0.000534
     12          1           0        4.842221    0.768502   -0.000921
     13          1           0        1.403573   -1.773769    0.000788
     14          1           0        5.155053   -1.598159   -0.001262
     15          1           0        3.908760   -2.494194   -0.881550
     16          1           0        3.910337   -2.493179    0.882264
 ---------------------------------------------------------------------

 SCF Done:  E(RB3LYP) =  -3042.83396531     A.U. after    1 cycles

 Excitation energies and oscillator strengths:

 Excited State   1:      Singlet-A      4.4754 eV  277.03 nm  f=0.0024  <S**2>=0.000
      48 -> 49         0.70218
 This state for optimization and/or second-order correction.
 Total Energy, E(TD-HF/TD-KS) =  -3042.66949620
 Copying the excited state density for this state as the 1-particle RhoCI density.

 Excited State   2:      Singlet-A      4.6325 eV  267.64 nm  f=0.0078  <S**2>=0.000
      47 -> 49         0.69989

 Excited State   3:      Singlet-A      5.0063 eV  247.66 nm  f=0.0099  <S**2>=0.000
      47 -> 50        -0.15138
      47 -> 52        -0.28536
      48 -> 50         0.61474
      48 -> 52        -0.11291

 Excited State   4:      Singlet-A      5.3243 eV  232.86 nm  f=0.2425  <S**2>=0.000
      46 -> 49         0.66242
      47 -> 50        -0.14109
      47 -> 53        -0.14341

 Excited State   5:      Singlet-A      5.3349 eV  232.40 nm  f=0.0002  <S**2>=0.000
      48 -> 51         0.70187

 Excited State   6:      Singlet-A      5.3998 eV  229.61 nm  f=0.0023  <S**2>=0.000
      45 -> 49         0.50984
      46 -> 50         0.48364

 Excited State   7:      Singlet-A      5.4510 eV  227.45 nm  f=0.0355  <S**2>=0.000
      44 -> 49         0.69740
      46 -> 51         0.10938

 Excited State   8:      Singlet-A      5.4607 eV  227.05 nm  f=0.3088  <S**2>=0.000
      46 -> 49         0.17110
      47 -> 50         0.62611
      48 -> 50         0.19670
      48 -> 52         0.17546

 Excited State   9:      Singlet-A      5.4965 eV  225.57 nm  f=0.0020  <S**2>=0.000
      45 -> 49        -0.11158
      46 -> 50         0.10017
      47 -> 51         0.68688

 Excited State  10:      Singlet-A      5.5188 eV  224.66 nm  f=0.0758  <S**2>=0.000
      45 -> 49        -0.47437
      46 -> 50         0.49572
      47 -> 51        -0.14596

 The electronic state is 1-A.
 Alpha  occ. eigenvalues -- -482.87872 -61.84102 -56.35833 -56.35695 -56.35691
 Alpha  occ. eigenvalues --  -46.84414 -10.19350 -10.18602 -10.18528 -10.18519
 Alpha  occ. eigenvalues --  -10.18470 -10.18362 -10.17016  -8.55013  -6.49759
 Alpha  occ. eigenvalues --   -6.49362  -6.49352  -3.13213  -2.61437  -2.61313
 Alpha  occ. eigenvalues --   -2.61306  -2.60989  -2.60989  -1.87849  -1.87788
 Alpha  occ. eigenvalues --   -1.87188  -0.84490  -0.76327  -0.72960  -0.72500
 Alpha  occ. eigenvalues --   -0.67996  -0.59157  -0.56896  -0.50049  -0.45021
 Alpha  occ. eigenvalues --   -0.43520  -0.41781  -0.40179  -0.38328  -0.37960
 Alpha  occ. eigenvalues --   -0.34719  -0.33286  -0.32767  -0.28045  -0.28013
 Alpha  occ. eigenvalues --   -0.26001  -0.24486  -0.23665
 Alpha virt. eigenvalues --   -0.04390  -0.02523  -0.01383   0.00193   0.02269
 Alpha virt. eigenvalues --    0.06822   0.10694   0.11750   0.12640   0.13196
 Alpha virt. eigenvalues --    0.14080   0.16169   0.16564   0.17095   0.18457

 Mulliken atomic charges:
              1
     1  Br  -0.270612
     2  Mg  -0.124762
     3  C    0.008981
     4  C   -0.123465
     5  C   -0.094569
     6  C   -0.165809
     7  C    0.225255
     8  C   -0.214997
     9  C   -0.545872
    10  H    0.190672
    11  H    0.173371
    12  H    0.168788
    13  H    0.162621
    14  H    0.182845
    15  H    0.213766
    16  H    0.213785
 Sum of Mulliken atomic charges =  -0.00000

 Dipole moment (field-independent basis, Debye):
    X=             14.9051    Y=              0.4483    Z=              0.0001  Tot=             14.9118
 Quadrupole moment (field-independent basis, Debye-Ang):
   XX=            -68.2878   YY=            -62.2539   ZZ=            -74.8711
   XY=             -2.8236   XZ=             -0.0026   YZ=             -0.0010

 Summary of Natural Population Analysis:

                                       Natural Population
                Natural  -----------------------------------------------
    Atom  No    Charge         Core      Valence    Rydberg      Total
 -----------------------------------------------------------------------
     Br    1   -0.66292     27.99974     7.65288    0.01030    35.66292
     Mg    2    0.60403      9.99825     1.36858    0.02914    11.39597
      C    3   -0.51536      1.99931     4.48133    0.03472     6.51536
      C    4   -0.02128      1.99912     4.00805    0.01411     6.02128
      C    5   -0.20377      1.99913     4.19010    0.01455     6.20377
      C    6   -0.22209      1.99905     4.20956    0.01349     6.22209
      C    7    0.16504      1.99902     3.82242    0.01352     5.83496
      C    8   -0.21580      1.99908     4.20244    0.01428     6.21580
      C    9   -0.72175      1.99938     4.71438    0.00799     6.72175
      H   10    0.23836      0.00000     0.75894    0.00269     0.76164
      H   11    0.25136      0.00000     0.74751    0.00113     0.74864
      H   12    0.25082      0.00000     0.74839    0.00079     0.74918
      H   13    0.23928      0.00000     0.75812    0.00260     0.76072
      H   14    0.25190      0.00000     0.74737    0.00073     0.74810
      H   15    0.28101      0.00000     0.71852    0.00046     0.71899
      H   16    0.28104      0.00000     0.71850    0.00046     0.71896
 =======================================================================
   * Total *   -0.00012     51.99207    43.84708    0.16097    96.00012

 Normal termination of Gaussian 09 at Sun Oct  3 14:05:36 2021.
