 Gaussian 09, Revision A.02,

 -----------------------------------
 #p opt b3lyp/6-31G* scf=(xqc,tight)
 -----------------------------------

 -------------------------------
 COc1ccc(cc1)[N+](=O)[O-]_conf_0
 -------------------------------
 Symbolic Z-matrix:
 Charge =  0 Multiplicity = 1

 SCF Done:  E(RB3LYP) =  -551.274327668     A.U. after   16 cycles
 SCF Done:  E(RB3LYP) =  -551.275752711     A.U. after   13 cycles
 SCF Done:  E(RB3LYP) =  -551.275852608     A.U. after   18 cycles
 SCF Done:  E(RB3LYP) =  -551.275562281     A.U. after   16 cycles
 SCF Done:  E(RB3LYP) =  -551.275859060     A.U. after   16 cycles
 SCF Done:  E(RB3LYP) =  -551.275860200     A.U. after    8 cycles
 Optimization completed.
    -- Stationary point found.
 Normal termination of Gaussian 09 at Wed Sep 29 00:30:14 2021.

 ----------------------------------------------------------------------
 #p freq b3lyp/6-31G* volume NMR pop=NPA density=current Geom=AllCheck
 Guess=Read
 ----------------------------------------------------------------------

 COc1ccc(cc1)[N+](=O)[O-]_conf_0
 -------------------------------
 Redundant internal coordinates taken from checkpoint file:
 C7H7NO3_8511_conf_0.chk
 Charge =  0 Multiplicity = 1

 SCF Done:  E(RB3LYP) =  -551.275860200     A.U. after    2 cycles

  1  C    Isotropic =   136.7361   Anisotropy =    66.5109

  2  O    Isotropic =   221.1999   Anisotropy =   109.6522

  3  C    Isotropic =    34.3043   Anisotropy =   134.1210

  4  C    Isotropic =    86.5221   Anisotropy =   141.6712

  5  C    Isotropic =    68.8632   Anisotropy =   169.4819

  6  C    Isotropic =    54.3367   Anisotropy =    98.9293

  7  C    Isotropic =    69.3525   Anisotropy =   168.3838

  8  C    Isotropic =    77.9723   Anisotropy =   133.9976

  9  N    Isotropic =  -109.4564   Anisotropy =   265.5107

 10  O    Isotropic =  -256.7682   Anisotropy =   689.9766

 11  O    Isotropic =  -259.8445   Anisotropy =   694.7774

 12  H    Isotropic =    28.1704   Anisotropy =     7.6674

 13  H    Isotropic =    28.5684   Anisotropy =     7.8306

 14  H    Isotropic =    28.5679   Anisotropy =     7.8314

 15  H    Isotropic =    25.7796   Anisotropy =     7.2389

 16  H    Isotropic =    24.0361   Anisotropy =     5.5063

 17  H    Isotropic =    24.0656   Anisotropy =     5.1438

 18  H    Isotropic =    25.4750   Anisotropy =     5.8711

  Exact polarizability: 143.875   1.798  94.271   0.001   0.002  38.094
 Approx polarizability: 220.439  -0.739 184.131   0.004   0.003  57.056

                     1                      2                      3
                     A                      A                      A
 Frequencies --    63.8568                79.0843               137.7543
 Red. masses --     6.2339                 4.3123                 4.9499
 Frc consts  --     0.0150                 0.0159                 0.0553
 IR Inten    --     0.2301                 0.0002                 8.1783

                     4                      5                      6
                     A                      A                      A
 Frequencies --   187.8678               230.3379               284.4643
 Red. masses --     4.9886                 1.1527                 4.4660
 Frc consts  --     0.1037                 0.0360                 0.2129
 IR Inten    --     1.7488                 0.2934                 2.8007

                     7                      8                      9
                     A                      A                      A
 Frequencies --   316.5456               349.5273               430.3334
 Red. masses --     4.6520                 8.5920                 3.2099
 Frc consts  --     0.2746                 0.6185                 0.3502
 IR Inten    --     0.0173                 0.4889                 0.0261

                    10                     11                     12
                     A                      A                      A
 Frequencies --   490.3118               513.0320               543.7758
 Red. masses --     5.1317                 2.8430                 5.9535
 Frc consts  --     0.7269                 0.4409                 1.0372
 IR Inten    --     2.4615                 3.2712                 2.0201

                    13                     14                     15
                     A                      A                      A
 Frequencies --   630.7927               647.7713               700.0173
 Red. masses --     6.5498                 6.9083                 3.7799
 Frc consts  --     1.5355                 1.7079                 1.0913
 IR Inten    --    18.9485                 9.1903                 7.6235

                    16                     17                     18
                     A                      A                      A
 Frequencies --   759.4423               801.4402               826.9720
 Red. masses --     6.5405                 6.2094                 1.2589
 Frc consts  --     2.2226                 2.3499                 0.5073
 IR Inten    --    26.3886                 1.6082                 1.5187

                    19                     20                     21
                     A                      A                      A
 Frequencies --   863.7374               873.3269               972.6528
 Red. masses --     1.7458                 9.2621                 1.3183
 Frc consts  --     0.7674                 4.1621                 0.7348
 IR Inten    --    43.1542                36.3917                 0.4220

                    22                     23                     24
                     A                      A                      A
 Frequencies --   985.8315              1025.0167              1068.8307
 Red. masses --     1.2967                 2.7419                 6.7741
 Frc consts  --     0.7425                 1.6973                 4.5595
 IR Inten    --     0.6394                 0.0827                63.0208

                    25                     26                     27
                     A                      A                      A
 Frequencies --  1136.1276              1138.6438              1182.4194
 Red. masses --     2.3132                 1.3257                 1.2691
 Frc consts  --     1.7592                 1.0127                 1.0454
 IR Inten    --    89.9453                18.7911                 0.7634

                    28                     29                     30
                     A                      A                      A
 Frequencies --  1206.7498              1216.8694              1312.4294
 Red. masses --     1.3550                 1.3654                 4.3208
 Frc consts  --     1.1626                 1.1912                 4.3850
 IR Inten    --    29.9860                 6.3846               370.7794

                    31                     32                     33
                     A                      A                      A
 Frequencies --  1329.8016              1383.9046              1396.6303
 Red. masses --     1.3521                 8.6969                11.7684
 Frc consts  --     1.4088                 9.8135                13.5248
 IR Inten    --    31.4769               162.7812               263.9189

                    34                     35                     36
                     A                      A                      A
 Frequencies --  1469.5533              1497.3228              1521.6672
 Red. masses --     3.4212                 1.2187                 1.0477
 Frc consts  --     4.3531                 1.6098                 1.4293
 IR Inten    --     0.7764                17.3932                 6.9164

                    37                     38                     39
                     A                      A                      A
 Frequencies --  1530.7358              1549.9921              1610.1723
 Red. masses --     1.0689                 2.3675                10.4486
 Frc consts  --     1.4757                 3.3512                15.9607
 IR Inten    --    38.9652                61.6277               107.8514

                    40                     41                     42
                     A                      A                      A
 Frequencies --  1657.5439              1666.9518              3037.3455
 Red. masses --     6.1919                 8.1465                 1.0342
 Frc consts  --    10.0232                13.3373                 5.6212
 IR Inten    --   157.1249               123.4635                48.2706

                    43                     44                     45
                     A                      A                      A
 Frequencies --  3101.7616              3170.1948              3223.3699
 Red. masses --     1.1074                 1.1007                 1.0903
 Frc consts  --     6.2773                 6.5179                 6.6746
 IR Inten    --    34.6445                19.4787                 2.5812

                    46                     47                     48
                     A                      A                      A
 Frequencies --  3234.7767              3252.0801              3252.7189
 Red. masses --     1.0884                 1.0932                 1.0933
 Frc consts  --     6.7098                 6.8121                 6.8151
 IR Inten    --     5.7329                 1.1711                 2.0311

 - Thermochemistry -
 -------------------
 Temperature   298.150 Kelvin.  Pressure   1.00000 Atm.
 Atom     1 has atomic number  6 and mass  12.00000

 Molecular mass:   153.04259 amu.
 Principal axes and moments of inertia in atomic units:
                           1         2         3
     Eigenvalues --   510.953363089.923623589.32437
           X            0.99989   0.01487  -0.00000
           Y           -0.01487   0.99989   0.00000
           Z            0.00000  -0.00000   1.00000
 This molecule is an asymmetric top.
 Rotational symmetry number  1.
 Warning -- assumption of classical behavior for rotation
           may cause significant error
 Rotational temperatures (Kelvin)      0.16951     0.02803     0.02413
 Rotational constants (GHZ):           3.53211     0.58407     0.50281
 Zero-point vibrational energy     358057.2 (Joules/Mol)
                                   85.57772 (Kcal/Mol)
 Warning -- explicit consideration of  12 degrees of freedom as
           vibrations may cause significant error
 Vibrational temperatures:     91.88   113.78   198.20   270.30   331.40
          (Kelvin)            409.28   455.44   502.89   619.15   705.45
                              738.14   782.37   907.57   932.00  1007.17
                             1092.67  1153.09  1189.83  1242.72  1256.52
                             1399.43  1418.39  1474.77  1537.81  1634.63
                             1638.25  1701.24  1736.24  1750.80  1888.29
                             1913.29  1991.13  2009.44  2114.36  2154.31
                             2189.34  2202.38  2230.09  2316.68  2384.83
                             2398.37  4370.06  4462.74  4561.20  4637.70
                             4654.12  4679.01  4679.93

 Zero-point correction=                           0.136377 (Hartree/Particle)
 Thermal correction to Energy=                    0.145728
 Thermal correction to Enthalpy=                  0.146672
 Thermal correction to Gibbs Free Energy=         0.101144
 Sum of electronic and zero-point Energies=           -551.139483
 Sum of electronic and thermal Energies=              -551.130132
 Sum of electronic and thermal Enthalpies=            -551.129188
 Sum of electronic and thermal Free Energies=         -551.174716

                     E (Thermal)             CV                S
                      KCal/Mol        Cal/Mol-Kelvin    Cal/Mol-Kelvin
 Total                   91.446             34.786             95.822
 Electronic               0.000              0.000              0.000
 Translational            0.889              2.981             40.987
 Rotational               0.889              2.981             30.117
 Vibrational             89.668             28.824             24.718
 Vibration     1          0.597              1.972              4.334
 Vibration     2          0.600              1.963              3.913
 Vibration     3          0.614              1.916              2.835
 Vibration     4          0.633              1.857              2.249
 Vibration     5          0.652              1.795              1.876
 Vibration     6          0.683              1.702              1.507
 Vibration     7          0.703              1.642              1.328
 Vibration     8          0.727              1.576              1.168
 Vibration     9          0.792              1.404              0.858
 Vibration    10          0.846              1.272              0.683
 Vibration    11          0.868              1.221              0.626
 Vibration    12          0.899              1.153              0.557

 Optimization completed.
    -- Stationary point found.
 Normal termination of Gaussian 09 at Wed Sep 29 00:52:06 2021.
 Gaussian 09:  AM64L-G09RevA.02 11-Jun-2009

 ----------------------------------------------------------------------
 #p TD(NStates=10, Root=1) b3lyp/6-31G* volume pop=NPA density=current
 Geom=AllCheck Guess=Read
 ----------------------------------------------------------------------

 COc1ccc(cc1)[N+](=O)[O-]_conf_0
 -------------------------------
 Redundant internal coordinates taken from checkpoint file:
 C7H7NO3_8511_conf_0.chk
 Charge =  0 Multiplicity = 1

                         Standard orientation:
 ---------------------------------------------------------------------
 Center     Atomic      Atomic             Coordinates (Angstroms)
 Number     Number       Type             X           Y           Z
 ---------------------------------------------------------------------
      1          6           0       -3.858469   -0.577123    0.000226
      2          8           0       -2.959913    0.526904   -0.000150
      3          6           0       -1.627210    0.283806   -0.000092
      4          6           0       -1.051392   -0.996992   -0.000123
      5          6           0        0.334275   -1.130056   -0.000078
      6          6           0        1.134218    0.009463   -0.000012
      7          6           0        0.574162    1.291308    0.000006
      8          6           0       -0.803356    1.424959   -0.000033
      9          7           0        2.588696   -0.137274    0.000041
     10          8           0        3.052579   -1.279670    0.000020
     11          8           0        3.269621    0.890405    0.000083
     12          1           0       -4.859223   -0.143290    0.000503
     13          1           0       -3.729157   -1.196950    0.896050
     14          1           0       -3.729733   -1.197099   -0.895580
     15          1           0       -1.668518   -1.887286   -0.000200
     16          1           0        0.802034   -2.107005   -0.000104
     17          1           0        1.225520    2.156547    0.000061
     18          1           0       -1.273450    2.402702   -0.000012
 ---------------------------------------------------------------------

 SCF Done:  E(RB3LYP) =  -551.275860200     A.U. after    1 cycles

 Excitation energies and oscillator strengths:

 Excited State   1:      Singlet-A      3.8070 eV  325.67 nm  f=0.0000  <S**2>=0.000
      38 -> 41         0.69779
      38 -> 43        -0.11327
 This state for optimization and/or second-order correction.
 Total Energy, E(TD-HF/TD-KS) =  -551.135955341
 Copying the excited state density for this state as the 1-particle RhoCI density.

 Excited State   2:      Singlet-A      4.2947 eV  288.69 nm  f=0.2947  <S**2>=0.000
      40 -> 41         0.69653

 Excited State   3:      Singlet-A      4.3353 eV  285.99 nm  f=0.0000  <S**2>=0.000
      37 -> 41         0.69816
      37 -> 43        -0.10953

 Excited State   4:      Singlet-A      4.6189 eV  268.43 nm  f=0.0092  <S**2>=0.000
      39 -> 41         0.64997
      40 -> 42         0.25588

 Excited State   5:      Singlet-A      5.5288 eV  224.25 nm  f=0.0535  <S**2>=0.000
      39 -> 41        -0.25428
      39 -> 43         0.21959
      40 -> 42         0.61492

 Excited State   6:      Singlet-A      6.1565 eV  201.39 nm  f=0.0626  <S**2>=0.000
      36 -> 41         0.66539
      36 -> 43         0.16628
      39 -> 43        -0.12033

 Excited State   7:      Singlet-A      6.1621 eV  201.20 nm  f=0.0001  <S**2>=0.000
      38 -> 42         0.70620

 Excited State   8:      Singlet-A      6.4834 eV  191.23 nm  f=0.0000  <S**2>=0.000
      33 -> 41        -0.12579
      34 -> 41         0.68445

 Excited State   9:      Singlet-A      6.5003 eV  190.74 nm  f=0.0312  <S**2>=0.000
      35 -> 41         0.10847
      39 -> 42        -0.46693
      40 -> 43         0.50720

 Excited State  10:      Singlet-A      6.5809 eV  188.40 nm  f=0.0000  <S**2>=0.000
      37 -> 42         0.70134

 The electronic state is 1-A.
 Alpha  occ. eigenvalues --  -19.20523 -19.17161 -19.17139 -14.56389 -10.27924
 Alpha  occ. eigenvalues --  -10.26130 -10.24474 -10.22175 -10.21929 -10.21523
 Alpha  occ. eigenvalues --  -10.21078  -1.21437  -1.09184  -1.04102  -0.88718
 Alpha  occ. eigenvalues --   -0.80652  -0.77743  -0.74129  -0.67769  -0.63800
 Alpha  occ. eigenvalues --   -0.59317  -0.56282  -0.53813  -0.52316  -0.51641
 Alpha  occ. eigenvalues --   -0.49102  -0.48985  -0.47291  -0.45123  -0.43898
 Alpha  occ. eigenvalues --   -0.42805  -0.40209  -0.38598  -0.35070  -0.34619
 Alpha  occ. eigenvalues --   -0.30148  -0.30000  -0.28220  -0.27813  -0.24843
 Alpha virt. eigenvalues --   -0.07937  -0.02537   0.01424   0.07476   0.09014
 Alpha virt. eigenvalues --    0.11112   0.13498   0.13894   0.14695   0.15197
 Alpha virt. eigenvalues --    0.15932   0.19260   0.19472   0.23019   0.27074

 Mulliken atomic charges:
              1
     1  C   -0.218945
     2  O   -0.502911
     3  C    0.381121
     4  C   -0.200057
     5  C   -0.190773
     6  C    0.290796
     7  C   -0.181390
     8  C   -0.178928
     9  N    0.332365
    10  O   -0.322961
    11  O   -0.320675
    12  H    0.175833
    13  H    0.156674
    14  H    0.156673
    15  H    0.141864
    16  H    0.165197
    17  H    0.166187
    18  H    0.149929
 Sum of Mulliken atomic charges =   0.00000

 Dipole moment (field-independent basis, Debye):
    X=             -3.7716    Y=             -0.8705    Z=              0.0004  Tot=              3.8707
 Quadrupole moment (field-independent basis, Debye-Ang):
   XX=            -63.2929   YY=            -58.7368   ZZ=            -64.1050
   XY=              5.2835   XZ=             -0.0018   YZ=              0.0003

 Summary of Natural Population Analysis:

                                       Natural Population
                Natural  -----------------------------------------------
    Atom  No    Charge         Core      Valence    Rydberg      Total
 -----------------------------------------------------------------------
      C    1   -0.31840      1.99943     4.30521    0.01376     6.31840
      O    2   -0.51405      1.99974     6.50246    0.01186     8.51405
      C    3    0.31578      1.99883     3.66321    0.02218     5.68422
      C    4   -0.30553      1.99903     4.29426    0.01224     6.30553
      C    5   -0.23871      1.99903     4.22515    0.01453     6.23871
      C    6    0.03622      1.99877     3.94708    0.01793     5.96378
      C    7   -0.24247      1.99902     4.22954    0.01391     6.24247
      C    8   -0.25734      1.99904     4.24389    0.01441     6.25734
      N    9    0.37587      1.99955     4.57857    0.04601     6.62413
      O   10   -0.25422      1.99984     6.23948    0.01491     8.25422
      O   11   -0.25252      1.99984     6.23777    0.01491     8.25252
      H   12    0.23172      0.00000     0.76778    0.00050     0.76828
      H   13    0.20482      0.00000     0.79337    0.00181     0.79518
      H   14    0.20482      0.00000     0.79337    0.00181     0.79518
      H   15    0.24400      0.00000     0.75519    0.00081     0.75600
      H   16    0.25778      0.00000     0.74130    0.00092     0.74222
      H   17    0.25905      0.00000     0.74005    0.00090     0.74095
      H   18    0.25317      0.00000     0.74569    0.00114     0.74683
 =======================================================================
   * Total *   -0.00000     21.99212    57.80336    0.20452    80.00000

 Normal termination of Gaussian 09 at Wed Sep 29 02:27:13 2021.
