 Gaussian 09, Revision A.02,

 -----------------------------------
 #p opt b3lyp/6-31G* scf=(xqc,tight)
 -----------------------------------

 --------------------
 Cc1ccc(cc1)Br_conf_0
 --------------------
 Symbolic Z-matrix:
 Charge =  0 Multiplicity = 1

 SCF Done:  E(RB3LYP) =  -2842.67100966     A.U. after   14 cycles
 SCF Done:  E(RB3LYP) =  -2842.67174740     A.U. after   12 cycles
 SCF Done:  E(RB3LYP) =  -2842.67178691     A.U. after    9 cycles
 SCF Done:  E(RB3LYP) =  -2842.67178885     A.U. after    8 cycles
 Optimization completed.
    -- Stationary point found.
 Normal termination of Gaussian 09 at Sun Oct  3 05:00:24 2021.

 ----------------------------------------------------------------------
 #p freq b3lyp/6-31G* volume NMR pop=NPA density=current Geom=AllCheck
 Guess=Read
 ----------------------------------------------------------------------

 Cc1ccc(cc1)Br_conf_0
 --------------------
 Redundant internal coordinates taken from checkpoint file:
 C7H7Br_20c2_conf_0.chk
 Charge =  0 Multiplicity = 1

 SCF Done:  E(RB3LYP) =  -2842.67178885     A.U. after    1 cycles

  1  C    Isotropic =   168.2504   Anisotropy =    34.6962

  2  C    Isotropic =    59.9707   Anisotropy =   180.2155

  3  C    Isotropic =    65.9337   Anisotropy =   141.1589

  4  C    Isotropic =    64.8909   Anisotropy =   138.8603

  5  C    Isotropic =    57.4593   Anisotropy =   102.4648

  6  C    Isotropic =    64.7636   Anisotropy =   139.3854

  7  C    Isotropic =    66.5260   Anisotropy =   150.6529

  8  Br   Isotropic =  2199.3403   Anisotropy =  1160.4818

  9  H    Isotropic =    30.4613   Anisotropy =     7.0633

 10  H    Isotropic =    29.8238   Anisotropy =     7.9706

 11  H    Isotropic =    29.8029   Anisotropy =     8.0573

 12  H    Isotropic =    25.2942   Anisotropy =     6.2006

 13  H    Isotropic =    25.1753   Anisotropy =     8.7159

 14  H    Isotropic =    25.0975   Anisotropy =     8.8011

 15  H    Isotropic =    25.1705   Anisotropy =     6.6950

  Exact polarizability: 132.420  -0.624  85.926   0.049  -0.002  40.749
 Approx polarizability: 193.022  -1.138 149.066   0.051  -0.005  62.472

 ******    1 imaginary frequencies (negative Signs) ******

                     1                      2                      3
                     A                      A                      A
 Frequencies --   -27.0687               108.2241               213.3301
 Red. masses --     1.0519                 4.1654                 4.7421
 Frc consts  --     0.0005                 0.0287                 0.1272
 IR Inten    --     0.1375                 0.1539                 0.0066

                     4                      5                      6
                     A                      A                      A
 Frequencies --   290.3907               295.9287               364.1145
 Red. masses --    10.0913                 4.1267                 2.7499
 Frc consts  --     0.5014                 0.2129                 0.2148
 IR Inten    --     2.5781                 0.3526                 0.2481

                     7                      8                      9
                     A                      A                      A
 Frequencies --   421.9980               497.5742               596.0669
 Red. masses --     2.9997                 2.7213                 5.4357
 Frc consts  --     0.3147                 0.3970                 1.1379
 IR Inten    --     0.0197                11.4761                 8.7573

                    10                     11                     12
                     A                      A                      A
 Frequencies --   649.3127               718.9960               805.4639
 Red. masses --     6.9492                 3.4183                 4.9585
 Frc consts  --     1.7262                 1.0412                 1.8954
 IR Inten    --     0.0590                 0.1354                10.0482

                    13                     14                     15
                     A                      A                      A
 Frequencies --   827.5750               849.5709               969.4419
 Red. masses --     1.3534                 1.2494                 1.3258
 Frc consts  --     0.5461                 0.5313                 0.7341
 IR Inten    --    34.3589                 0.0512                 0.4166

                    16                     17                     18
                     A                      A                      A
 Frequencies --   973.0960              1015.4361              1028.9235
 Red. masses --     1.3166                 1.5304                 3.9840
 Frc consts  --     0.7345                 0.9297                 2.4851
 IR Inten    --     0.4564                 0.1246                36.1786

                    19                     20                     21
                     A                      A                      A
 Frequencies --  1076.6613              1095.0673              1144.5085
 Red. masses --     1.5209                 2.6531                 1.3142
 Frc consts  --     1.0388                 1.8745                 1.0142
 IR Inten    --     4.7594                23.9483                 5.5122

                    22                     23                     24
                     A                      A                      A
 Frequencies --  1216.2238              1237.1883              1336.1885
 Red. masses --     1.1423                 3.0887                 3.4378
 Frc consts  --     0.9955                 2.7855                 3.6163
 IR Inten    --     0.5459                 4.5045                 0.2417

                    25                     26                     27
                     A                      A                      A
 Frequencies --  1345.2607              1442.4696              1444.2373
 Red. masses --     1.6494                 1.3970                 2.1005
 Frc consts  --     1.7587                 1.7126                 2.5813
 IR Inten    --     0.7503                 0.8736                 3.0120

                    28                     29                     30
                     A                      A                      A
 Frequencies --  1514.9634              1523.6598              1539.3079
 Red. masses --     1.0443                 1.0975                 2.3168
 Frc consts  --     1.4121                 1.5012                 3.2344
 IR Inten    --     5.6978                 8.8908                54.7583

                    31                     32                     33
                     A                      A                      A
 Frequencies --  1629.7087              1653.9348              3045.3409
 Red. masses --     5.9938                 5.6098                 1.0375
 Frc consts  --     9.3793                 9.0413                 5.6691
 IR Inten    --     1.4106                 2.6770                30.9870

                    34                     35                     36
                     A                      A                      A
 Frequencies --  3097.4868              3128.0208              3182.1338
 Red. masses --     1.1009                 1.1010                 1.0892
 Frc consts  --     6.2234                 6.3470                 6.4983
 IR Inten    --    19.0356                16.1136                14.3807

                    37                     38                     39
                     A                      A                      A
 Frequencies --  3185.5466              3222.1141              3223.1837
 Red. masses --     1.0892                 1.0930                 1.0935
 Frc consts  --     6.5124                 6.6855                 6.6935
 IR Inten    --    14.6993                 7.3351                 0.4207

 - Thermochemistry -
 -------------------
 Temperature   298.150 Kelvin.  Pressure   1.00000 Atm.
 Atom     1 has atomic number  6 and mass  12.00000

 Molecular mass:   169.97311 amu.
 Principal axes and moments of inertia in atomic units:
                           1         2         3
     Eigenvalues --   327.138432864.701123180.63983
           X            1.00000  -0.00018   0.00004
           Y            0.00018   1.00000   0.00000
           Z           -0.00004  -0.00000   1.00000
 This molecule is an asymmetric top.
 Rotational symmetry number  1.
 Rotational temperatures (Kelvin)      0.26476     0.03023     0.02723
 Rotational constants (GHZ):           5.51675     0.62999     0.56741
    1 imaginary frequencies ignored.
 Zero-point vibrational energy     310482.7 (Joules/Mol)
                                   74.20714 (Kcal/Mol)
 Warning -- explicit consideration of   8 degrees of freedom as
           vibrations may cause significant error
 Vibrational temperatures:    155.71   306.93   417.81   425.77   523.88
          (Kelvin)            607.16   715.90   857.61   934.22  1034.47
                             1158.88  1190.69  1222.34  1394.81  1400.07
                             1460.98  1480.39  1549.07  1575.56  1646.69
                             1749.87  1780.04  1922.47  1935.53  2075.39
                             2077.93  2179.69  2192.20  2214.72  2344.78
                             2379.64  4381.56  4456.59  4500.52  4578.38
                             4583.29  4635.90  4637.44

 Zero-point correction=                           0.118257 (Hartree/Particle)
 Thermal correction to Energy=                    0.124985
 Thermal correction to Enthalpy=                  0.125929
 Thermal correction to Gibbs Free Energy=         0.085975
 Sum of electronic and zero-point Energies=          -2842.553532
 Sum of electronic and thermal Energies=             -2842.546804
 Sum of electronic and thermal Enthalpies=           -2842.545859
 Sum of electronic and thermal Free Energies=        -2842.585814

                     E (Thermal)             CV                S
                      KCal/Mol        Cal/Mol-Kelvin    Cal/Mol-Kelvin
 Total                   78.429             25.375             84.092
 Electronic               0.000              0.000              0.000
 Translational            0.889              2.981             41.299
 Rotational               0.889              2.981             29.479
 Vibrational             76.652             19.413             13.313
 Vibration     1          0.606              1.943              3.301
 Vibration     2          0.644              1.821              2.015
 Vibration     3          0.686              1.692              1.472
 Vibration     4          0.690              1.681              1.440
 Vibration     5          0.738              1.546              1.104
 Vibration     6          0.784              1.422              0.885
 Vibration     7          0.853              1.255              0.664
 Vibration     8          0.954              1.040              0.456

 Normal termination of Gaussian 09 at Sun Oct  3 05:48:54 2021.
 Gaussian 09:  AM64L-G09RevA.02 11-Jun-2009

 ----------------------------------------------------------------------
 #p TD(NStates=10, Root=1) b3lyp/6-31G* volume pop=NPA density=current
 Geom=AllCheck Guess=Read
 ----------------------------------------------------------------------

 Cc1ccc(cc1)Br_conf_0
 --------------------
 Redundant internal coordinates taken from checkpoint file:
 C7H7Br_20c2_conf_0.chk
 Charge =  0 Multiplicity = 1

                         Standard orientation:
 ---------------------------------------------------------------------
 Center     Atomic      Atomic             Coordinates (Angstroms)
 Number     Number       Type             X           Y           Z
 ---------------------------------------------------------------------
      1          6           0        3.973987   -0.002520    0.001714
      2          6           0        2.462990    0.003815   -0.001160
      3          6           0        1.741051    1.202604   -0.001165
      4          6           0        0.344670    1.213177   -0.000435
      5          6           0       -0.340122    0.001932    0.000050
      6          6           0        0.347910   -1.210583   -0.000426
      7          6           0        1.741503   -1.198786   -0.001173
      8         35           0       -2.254415   -0.001149    0.000331
      9          1           0        4.377234    1.013997   -0.037669
     10          1           0        4.373578   -0.554470   -0.857812
     11          1           0        4.370090   -0.483560    0.904755
     12          1           0        2.275042    2.149943   -0.001896
     13          1           0       -0.201546    2.150404   -0.000707
     14          1           0       -0.198198   -2.147914   -0.000704
     15          1           0        2.276409   -2.146039   -0.001982
 ---------------------------------------------------------------------

 SCF Done:  E(RB3LYP) =  -2842.67178885     A.U. after    1 cycles

 Excitation energies and oscillator strengths:

 Excited State   1:      Singlet-A      5.1817 eV  239.27 nm  f=0.0082  <S**2>=0.000
      41 -> 43        -0.22650
      41 -> 44        -0.29226
      42 -> 43         0.50506
      42 -> 44        -0.32803
 This state for optimization and/or second-order correction.
 Total Energy, E(TD-HF/TD-KS) =  -2842.48136402
 Copying the excited state density for this state as the 1-particle RhoCI density.

 Excited State   2:      Singlet-A      5.4890 eV  225.88 nm  f=0.0002  <S**2>=0.000
      42 -> 45         0.70380

 Excited State   3:      Singlet-A      5.7672 eV  214.98 nm  f=0.1902  <S**2>=0.000
      41 -> 43         0.23138
      41 -> 44        -0.11049
      42 -> 43         0.38373
      42 -> 44         0.52924

 Excited State   4:      Singlet-A      6.2645 eV  197.91 nm  f=0.0000  <S**2>=0.000
      41 -> 45         0.70663

 Excited State   5:      Singlet-A      6.4505 eV  192.21 nm  f=0.0000  <S**2>=0.000
      40 -> 43         0.64298
      40 -> 44         0.28911

 Excited State   6:      Singlet-A      6.5731 eV  188.62 nm  f=0.0001  <S**2>=0.000
      40 -> 43        -0.29005
      40 -> 44         0.64309

 Excited State   7:      Singlet-A      6.6074 eV  187.64 nm  f=0.1401  <S**2>=0.000
      39 -> 43         0.27099
      39 -> 44        -0.22637
      40 -> 45        -0.19213
      41 -> 43         0.32212
      41 -> 44         0.35862
      42 -> 43         0.21757
      42 -> 44        -0.23027

 Excited State   8:      Singlet-A      6.7431 eV  183.87 nm  f=0.0125  <S**2>=0.000
      40 -> 45         0.67664
      41 -> 43         0.12164

 Excited State   9:      Singlet-A      6.7998 eV  182.33 nm  f=0.3388  <S**2>=0.000
      39 -> 43        -0.25560
      39 -> 44        -0.21210
      41 -> 43         0.44223
      41 -> 44        -0.38305
      42 -> 43        -0.11917
      42 -> 44        -0.14514

 Excited State  10:      Singlet-A      7.3659 eV  168.32 nm  f=0.0005  <S**2>=0.000
      39 -> 45         0.69903

 The electronic state is 1-A.
 Alpha  occ. eigenvalues -- -482.90610 -61.86793 -56.38922 -56.38515 -56.38506
 Alpha  occ. eigenvalues --  -10.24313 -10.20578 -10.20188 -10.20143 -10.19784
 Alpha  occ. eigenvalues --  -10.19773 -10.19066  -8.57940  -6.53330  -6.52063
 Alpha  occ. eigenvalues --   -6.52041  -2.64903  -2.64541  -2.64525  -2.63514
 Alpha  occ. eigenvalues --   -2.63513  -0.87222  -0.80639  -0.75514  -0.74851
 Alpha  occ. eigenvalues --   -0.67682  -0.61855  -0.58461  -0.50181  -0.47344
 Alpha  occ. eigenvalues --   -0.46086  -0.43108  -0.42604  -0.40347  -0.39431
 Alpha  occ. eigenvalues --   -0.37566  -0.35194  -0.34879  -0.30276  -0.28255
 Alpha  occ. eigenvalues --   -0.25971  -0.23382
 Alpha virt. eigenvalues --   -0.01193  -0.00744   0.00999   0.10526   0.12271
 Alpha virt. eigenvalues --    0.12954   0.13309   0.15766   0.17885   0.18573
 Alpha virt. eigenvalues --    0.19218   0.21835   0.25505   0.28368   0.31015

 Mulliken atomic charges:
              1
     1  C   -0.532593
     2  C    0.196132
     3  C   -0.202084
     4  C   -0.165503
     5  C    0.066858
     6  C   -0.159877
     7  C   -0.204429
     8  Br  -0.027396
     9  H    0.159547
    10  H    0.168042
    11  H    0.169498
    12  H    0.125059
    13  H    0.141607
    14  H    0.143050
    15  H    0.122089
 Sum of Mulliken atomic charges =   0.00000

 Dipole moment (field-independent basis, Debye):
    X=              0.6829    Y=             -0.0199    Z=              0.0076  Tot=              0.6832
 Quadrupole moment (field-independent basis, Debye-Ang):
   XX=            -52.4057   YY=            -56.4151   ZZ=            -62.0316
   XY=             -0.0292   XZ=              0.0301   YZ=             -0.0017

 Summary of Natural Population Analysis:

                                       Natural Population
                Natural  -----------------------------------------------
    Atom  No    Charge         Core      Valence    Rydberg      Total
 -----------------------------------------------------------------------
      C    1   -0.69472      1.99939     4.68762    0.00771     6.69472
      C    2    0.02810      1.99906     3.95719    0.01565     5.97190
      C    3   -0.25503      1.99905     4.23848    0.01750     6.25503
      C    4   -0.29036      1.99894     4.27006    0.02136     6.29036
      C    5   -0.09780      1.99859     4.07771    0.02149     6.09780
      C    6   -0.27040      1.99895     4.25067    0.02078     6.27040
      C    7   -0.28118      1.99905     4.26385    0.01827     6.28118
     Br    8    0.18043     27.99902     6.80289    0.01766    34.81957
      H    9    0.23904      0.00000     0.76011    0.00085     0.76096
      H   10    0.24735      0.00000     0.75082    0.00183     0.75265
      H   11    0.24838      0.00000     0.74985    0.00177     0.75162
      H   12    0.23019      0.00000     0.76880    0.00101     0.76981
      H   13    0.24326      0.00000     0.75569    0.00105     0.75674
      H   14    0.24293      0.00000     0.75602    0.00105     0.75707
      H   15    0.22981      0.00000     0.76919    0.00100     0.77019
 =======================================================================
   * Total *    0.00000     41.99206    41.85895    0.14899    84.00000

 Normal termination of Gaussian 09 at Sun Oct  3 07:45:17 2021.
