 Gaussian 09, Revision A.02,

 -----------------------------------
 #p opt b3lyp/genecp scf=(xqc,tight)
 -----------------------------------

 --------------------
 COc1ccc(cc1)I_conf_0
 --------------------
 Symbolic Z-matrix:
 Charge =  0 Multiplicity = 1

 SCF Done:  E(RB3LYP) =  -357.540532161     A.U. after   15 cycles
 SCF Done:  E(RB3LYP) =  -357.542331706     A.U. after   13 cycles
 SCF Done:  E(RB3LYP) =  -357.542439164     A.U. after   11 cycles
 SCF Done:  E(RB3LYP) =  -357.542454200     A.U. after   11 cycles
 SCF Done:  E(RB3LYP) =  -357.542459400     A.U. after    9 cycles
 SCF Done:  E(RB3LYP) =  -357.542463072     A.U. after   11 cycles
 SCF Done:  E(RB3LYP) =  -357.542463751     A.U. after    8 cycles
 Optimization completed.
    -- Stationary point found.
 Normal termination of Gaussian 09 at Tue Sep 28 23:58:42 2021.

 ----------------------------------------------------------------------
 #p freq b3lyp/genecp volume NMR pop=NPA density=current Geom=AllCheck
 Guess=Read
 ----------------------------------------------------------------------

 COc1ccc(cc1)I_conf_0
 --------------------
 Redundant internal coordinates taken from checkpoint file:
 C7H7IO_fd08_conf_0.chk
 Charge =  0 Multiplicity = 1

 SCF Done:  E(RB3LYP) =  -357.542463751     A.U. after    1 cycles

  1  C    Isotropic =   138.0679   Anisotropy =    65.2660

  2  O    Isotropic =   237.6050   Anisotropy =    83.7775

  3  C    Isotropic =    39.9967   Anisotropy =   131.0624

  4  C    Isotropic =    77.5953   Anisotropy =   131.1972

  5  C    Isotropic =    60.8251   Anisotropy =   136.8468

  6  C    Isotropic =    67.2890   Anisotropy =    83.4929

  7  C    Isotropic =    60.9083   Anisotropy =   136.9220

  8  C    Isotropic =    85.7441   Anisotropy =   138.8833

  9  I    Isotropic =    46.2857   Anisotropy =    27.9649

 10  H    Isotropic =    28.3422   Anisotropy =     8.0034

 11  H    Isotropic =    28.7659   Anisotropy =     7.9948

 12  H    Isotropic =    28.7659   Anisotropy =     7.9948

 13  H    Isotropic =    25.7118   Anisotropy =     5.5884

 14  H    Isotropic =    25.2475   Anisotropy =     8.2044

 15  H    Isotropic =    25.2601   Anisotropy =     8.6319

 16  H    Isotropic =    26.0172   Anisotropy =     7.1407

  Exact polarizability: 158.144  -0.825  82.342   0.000   0.000  33.704
 Approx polarizability: 217.216   4.021 139.109   0.001  -0.000  48.854

                     1                      2                      3
                     A                      A                      A
 Frequencies --    66.8134               124.2716               159.3109
 Red. masses --     3.7761                 4.8437                 5.0173
 Frc consts  --     0.0099                 0.0441                 0.0750
 IR Inten    --     1.2879                 2.8455                 0.7977

                     4                      5                      6
                     A                      A                      A
 Frequencies --   218.6739               239.1963               295.6888
 Red. masses --     9.9640                 1.1885                 3.6748
 Frc consts  --     0.2807                 0.0401                 0.1893
 IR Inten    --     1.0713                 0.1726                 1.1787

                     7                      8                      9
                     A                      A                      A
 Frequencies --   318.5960               424.9534               476.3532
 Red. masses --     3.9459                 3.1169                 4.3189
 Frc consts  --     0.2360                 0.3316                 0.5774
 IR Inten    --     3.9033                 0.0001                 0.4273

                    10                     11                     12
                     A                      A                      A
 Frequencies --   517.4025               588.7833               641.5614
 Red. masses --     2.8013                 5.8767                 7.1080
 Frc consts  --     0.4418                 1.2003                 1.7238
 IR Inten    --    10.5534                35.6166                 1.2780

                    13                     14                     15
                     A                      A                      A
 Frequencies --   704.9189               805.4190               818.0193
 Red. masses --     3.4051                 5.5573                 1.2920
 Frc consts  --     0.9969                 2.1240                 0.5094
 IR Inten    --     0.0038                 2.8881                 8.6799

                    16                     17                     18
                     A                      A                      A
 Frequencies --   838.5408               943.9874               962.8015
 Red. masses --     1.5913                 1.3048                 1.3057
 Frc consts  --     0.6592                 0.6850                 0.7131
 IR Inten    --    46.0991                 0.0826                 0.1280

                    19                     20                     21
                     A                      A                      A
 Frequencies --  1011.2003              1072.8580              1085.6695
 Red. masses --     5.3795                 5.3494                 2.5436
 Frc consts  --     3.2409                 3.6278                 1.7664
 IR Inten    --    39.1951                53.5496                13.6484

                    22                     23                     24
                     A                      A                      A
 Frequencies --  1141.4475              1184.9081              1211.8098
 Red. masses --     1.3423                 1.2702                 1.1762
 Frc consts  --     1.0304                 1.0507                 1.0176
 IR Inten    --     6.4139                 0.7920                19.8301

                    25                     26                     27
                     A                      A                      A
 Frequencies --  1219.5700              1300.3156              1338.4273
 Red. masses --     1.3573                 4.9035                 1.2850
 Frc consts  --     1.1894                 4.8849                 1.3563
 IR Inten    --    15.0910               274.1096                 1.3668

                    28                     29                     30
                     A                      A                      A
 Frequencies --  1349.6271              1448.3089              1498.8205
 Red. masses --     7.3914                 2.9140                 1.2083
 Frc consts  --     7.9324                 3.6013                 1.5993
 IR Inten    --    74.7135                 0.7405                28.8837

                    31                     32                     33
                     A                      A                      A
 Frequencies --  1521.6791              1533.0898              1542.0993
 Red. masses --     1.0480                 1.1738                 1.8352
 Frc consts  --     1.4297                 1.6254                 2.5714
 IR Inten    --     5.8341               102.8806                72.4774

                    34                     35                     36
                     A                      A                      A
 Frequencies --  1628.2255              1651.8991              3027.4490
 Red. masses --     6.9130                 5.5476                 1.0348
 Frc consts  --    10.7980                 8.9191                 5.5881
 IR Inten    --    12.4370                38.3648                54.1972

                    37                     38                     39
                     A                      A                      A
 Frequencies --  3087.0155              3161.4001              3212.6425
 Red. masses --     1.1068                 1.0998                 1.0880
 Frc consts  --     6.2146                 6.4761                 6.6160
 IR Inten    --    42.4787                25.5834                 2.6405

                    40                     41                     42
                     A                      A                      A
 Frequencies --  3219.2485              3228.0368              3234.7905
 Red. masses --     1.0883                 1.0949                 1.0934
 Frc consts  --     6.6452                 6.7223                 6.7411
 IR Inten    --     2.0968                 6.3660                 9.0683

 - Thermochemistry -
 -------------------
 Temperature   298.150 Kelvin.  Pressure   1.00000 Atm.
 Atom     1 has atomic number  6 and mass  12.00000

 Molecular mass:   233.95009 amu.
 Principal axes and moments of inertia in atomic units:
                           1         2         3
     Eigenvalues --   377.386575205.982895571.83780
           X            0.99992  -0.01274  -0.00000
           Y            0.01274   0.99992   0.00000
           Z            0.00000  -0.00000   1.00000
 This molecule is an asymmetric top.
 Rotational symmetry number  1.
 Rotational temperatures (Kelvin)      0.22951     0.01664     0.01554
 Rotational constants (GHZ):           4.78221     0.34667     0.32390
 Zero-point vibrational energy     323325.7 (Joules/Mol)
                                   77.27669 (Kcal/Mol)
 Warning -- explicit consideration of  11 degrees of freedom as
           vibrations may cause significant error
 Vibrational temperatures:     96.13   178.80   229.21   314.62   344.15
          (Kelvin)            425.43   458.39   611.41   685.37   744.43
                              847.13   923.06  1014.22  1158.82  1176.95
                             1206.47  1358.19  1385.25  1454.89  1543.60
                             1562.03  1642.29  1704.82  1743.52  1754.69
                             1870.86  1925.70  1941.81  2083.79  2156.47
                             2189.35  2205.77  2218.73  2342.65  2376.71
                             4355.82  4441.52  4548.54  4622.27  4631.77
                             4644.42  4654.14

 Zero-point correction=                           0.123148 (Hartree/Particle)
 Thermal correction to Energy=                    0.131635
 Thermal correction to Enthalpy=                  0.132579
 Thermal correction to Gibbs Free Energy=         0.087868
 Sum of electronic and zero-point Energies=           -357.419316
 Sum of electronic and thermal Energies=              -357.410829
 Sum of electronic and thermal Enthalpies=            -357.409885
 Sum of electronic and thermal Free Energies=         -357.454596

                     E (Thermal)             CV                S
                      KCal/Mol        Cal/Mol-Kelvin    Cal/Mol-Kelvin
 Total                   82.602             30.805             94.103
 Electronic               0.000              0.000              0.000
 Translational            0.889              2.981             42.252
 Rotational               0.889              2.981             30.771
 Vibrational             80.825             24.843             21.080
 Vibration     1          0.598              1.970              4.245
 Vibration     2          0.610              1.929              3.033
 Vibration     3          0.621              1.892              2.558
 Vibration     4          0.646              1.813              1.970
 Vibration     5          0.657              1.781              1.809
 Vibration     6          0.690              1.682              1.441
 Vibration     7          0.705              1.638              1.317
 Vibration     8          0.787              1.416              0.875
 Vibration     9          0.833              1.303              0.720
 Vibration    10          0.872              1.211              0.616
 Vibration    11          0.946              1.056              0.469

 Optimization completed.
    -- Stationary point found.
 Normal termination of Gaussian 09 at Wed Sep 29 00:19:13 2021.
 Gaussian 09:  AM64L-G09RevA.02 11-Jun-2009

 ----------------------------------------------------------------------
 #p TD(NStates=10, Root=1) b3lyp/genecp volume pop=NPA density=current
 Geom=AllCheck Guess=Read
 ----------------------------------------------------------------------

 COc1ccc(cc1)I_conf_0
 --------------------
 Redundant internal coordinates taken from checkpoint file:
 C7H7IO_fd08_conf_0.chk
 Charge =  0 Multiplicity = 1

                         Standard orientation:
 ---------------------------------------------------------------------
 Center     Atomic      Atomic             Coordinates (Angstroms)
 Number     Number       Type             X           Y           Z
 ---------------------------------------------------------------------
      1          6           0        4.795614   -0.656475   -0.000010
      2          8           0        3.944003    0.478485   -0.000031
      3          6           0        2.596433    0.273916    0.000050
      4          6           0        1.803995    1.432048    0.000018
      5          6           0        0.416674    1.338228   -0.000014
      6          6           0       -0.188108    0.078256    0.000002
      7          6           0        0.585509   -1.076789    0.000001
      8          6           0        1.981517   -0.983245    0.000013
      9         53           0       -2.328393   -0.078084   -0.000001
     10          1           0        5.814804   -0.266131    0.000010
     11          1           0        4.644150   -1.274399   -0.894999
     12          1           0        4.644100   -1.274355    0.895007
     13          1           0        2.296967    2.399176    0.000004
     14          1           0       -0.183773    2.241616   -0.000026
     15          1           0        0.119200   -2.055863   -0.000011
     16          1           0        2.567534   -1.895104   -0.000018
 ---------------------------------------------------------------------

 SCF Done:  E(RB3LYP) =  -357.542463751     A.U. after    1 cycles

 Excitation energies and oscillator strengths:

 Excited State   1:      Singlet-A      4.1754 eV  296.94 nm  f=0.0010  <S**2>=0.000
      32 -> 33         0.70397
 This state for optimization and/or second-order correction.
 Total Energy, E(TD-HF/TD-KS) =  -357.389020055
 Copying the excited state density for this state as the 1-particle RhoCI density.

 Excited State   2:      Singlet-A      4.9229 eV  251.85 nm  f=0.0273  <S**2>=0.000
      31 -> 35         0.25374
      32 -> 34         0.65362

 Excited State   3:      Singlet-A      5.3003 eV  233.92 nm  f=0.0017  <S**2>=0.000
      30 -> 33         0.70686

 Excited State   4:      Singlet-A      5.3073 eV  233.61 nm  f=0.0001  <S**2>=0.000
      31 -> 33         0.70665

 Excited State   5:      Singlet-A      5.6248 eV  220.43 nm  f=0.2683  <S**2>=0.000
      31 -> 34        -0.20726
      32 -> 35         0.66409

 Excited State   6:      Singlet-A      5.6322 eV  220.13 nm  f=0.0018  <S**2>=0.000
      29 -> 33         0.70245

 Excited State   7:      Singlet-A      6.0313 eV  205.57 nm  f=0.0000  <S**2>=0.000
      30 -> 34         0.70585

 Excited State   8:      Singlet-A      6.2603 eV  198.05 nm  f=0.0018  <S**2>=0.000
      29 -> 34         0.65370
      31 -> 34        -0.13777
      31 -> 35        -0.20842

 Excited State   9:      Singlet-A      6.3324 eV  195.79 nm  f=0.0000  <S**2>=0.000
      30 -> 35         0.70534

 Excited State  10:      Singlet-A      6.5785 eV  188.47 nm  f=0.0503  <S**2>=0.000
      26 -> 33         0.10935
      29 -> 35         0.52483
      31 -> 34         0.38036
      31 -> 35        -0.21686

 The electronic state is 1-A.
 Alpha  occ. eigenvalues --  -19.18147 -10.25334 -10.24063 -10.23032 -10.20051
 Alpha  occ. eigenvalues --  -10.19953 -10.19392 -10.19019  -1.07251  -0.86407
 Alpha  occ. eigenvalues --   -0.77144  -0.75903  -0.71339  -0.66284  -0.62242
 Alpha  occ. eigenvalues --   -0.58849  -0.54212  -0.49164  -0.47597  -0.46620
 Alpha  occ. eigenvalues --   -0.45377  -0.43556  -0.42325  -0.38930  -0.37389
 Alpha  occ. eigenvalues --   -0.34375  -0.33797  -0.33561  -0.27229  -0.26289
 Alpha  occ. eigenvalues --   -0.26171  -0.21883
 Alpha virt. eigenvalues --   -0.02921  -0.01206   0.00138   0.09270   0.10306
 Alpha virt. eigenvalues --    0.13584   0.14270   0.14962   0.15342   0.16167
 Alpha virt. eigenvalues --    0.17205   0.19675   0.24065   0.28306   0.28915

 Mulliken atomic charges:
              1
     1  C   -0.232348
     2  O   -0.436550
     3  C    0.379891
     4  C   -0.149273
     5  C   -0.088004
     6  C   -0.234895
     7  C   -0.084350
     8  C   -0.182799
     9  I   -0.118278
    10  H    0.189045
    11  H    0.176344
    12  H    0.176342
    13  H    0.152273
    14  H    0.154363
    15  H    0.154931
    16  H    0.143309
 Sum of Mulliken atomic charges =   0.00000

 Dipole moment (field-independent basis, Debye):
    X=              8.7408    Y=             -0.8889    Z=              0.0000  Tot=              8.7858
 Quadrupole moment (field-independent basis, Debye-Ang):
   XX=            -58.0399   YY=            -62.0294   ZZ=            -68.4316
   XY=             -6.4636   XZ=              0.0002   YZ=              0.0001

 Summary of Natural Population Analysis:

                                       Natural Population
                Natural  -----------------------------------------------
    Atom  No    Charge         Core      Valence    Rydberg      Total
 -----------------------------------------------------------------------
      C    1   -0.32321      1.99927     4.30958    0.01435     6.32321
      O    2   -0.45455      1.99966     6.44326    0.01163     8.45455
      C    3    0.37625      1.99860     3.60315    0.02200     5.62375
      C    4   -0.23269      1.99890     4.21897    0.01481     6.23269
      C    5   -0.22003      1.99880     4.20445    0.01677     6.22003
      C    6   -0.24433      1.99875     4.21263    0.03295     6.24433
      C    7   -0.19686      1.99880     4.18085    0.01721     6.19686
      C    8   -0.29152      1.99891     4.28004    0.01257     6.29152
      I    9   -0.05517     46.00000     7.02958    0.02560    53.05517
      H   10    0.23826      0.00000     0.76105    0.00069     0.76174
      H   11    0.21805      0.00000     0.78032    0.00162     0.78195
      H   12    0.21805      0.00000     0.78032    0.00162     0.78195
      H   13    0.24780      0.00000     0.74968    0.00252     0.75220
      H   14    0.24206      0.00000     0.75400    0.00394     0.75794
      H   15    0.23969      0.00000     0.75607    0.00424     0.76031
      H   16    0.23819      0.00000     0.75954    0.00226     0.76181
 =======================================================================
   * Total *   -0.00000     61.99170    47.82351    0.18480   110.00000

 Normal termination of Gaussian 09 at Wed Sep 29 01:03:13 2021.
