 Gaussian 09, Revision A.02,

 -----------------------------------
 #p opt b3lyp/6-31G* scf=(xqc,tight)
 -----------------------------------

 ---------------------
 COc1ccc(cc1)Br_conf_0
 ---------------------
 Symbolic Z-matrix:
 Charge =  0 Multiplicity = 1

 SCF Done:  E(RB3LYP) =  -2917.87507738     A.U. after   15 cycles
 SCF Done:  E(RB3LYP) =  -2917.87590558     A.U. after   12 cycles
 SCF Done:  E(RB3LYP) =  -2917.87596346     A.U. after   11 cycles
 SCF Done:  E(RB3LYP) =  -2917.87597264     A.U. after    9 cycles
 SCF Done:  E(RB3LYP) =  -2917.87597748     A.U. after    9 cycles
 SCF Done:  E(RB3LYP) =  -2917.87598017     A.U. after    8 cycles
 SCF Done:  E(RB3LYP) =  -2917.87598072     A.U. after   16 cycles
 Optimization completed.
    -- Stationary point found.
 Normal termination of Gaussian 09 at Tue Sep 28 23:48:19 2021.

 ----------------------------------------------------------------------
 #p freq b3lyp/6-31G* volume NMR pop=NPA density=current Geom=AllCheck
 Guess=Read
 ----------------------------------------------------------------------

 COc1ccc(cc1)Br_conf_0
 ---------------------
 Redundant internal coordinates taken from checkpoint file:
 C7H7BrO_dfe3_conf_0.chk
 Charge =  0 Multiplicity = 1

 SCF Done:  E(RB3LYP) =  -2917.87598072     A.U. after    1 cycles

  1  C    Isotropic =   137.3418   Anisotropy =    65.5350

  2  O    Isotropic =   237.1534   Anisotropy =    82.9585

  3  C    Isotropic =    39.9795   Anisotropy =   129.3795

  4  C    Isotropic =    77.2118   Anisotropy =   132.8505

  5  C    Isotropic =    63.7194   Anisotropy =   139.8507

  6  C    Isotropic =    64.3029   Anisotropy =    93.2910

  7  C    Isotropic =    64.0221   Anisotropy =   139.9993

  8  C    Isotropic =    85.4360   Anisotropy =   140.6164

  9  Br   Isotropic =  2222.2679   Anisotropy =  1150.8225

 10  H    Isotropic =    28.3010   Anisotropy =     8.0477

 11  H    Isotropic =    28.7015   Anisotropy =     7.9845

 12  H    Isotropic =    28.7014   Anisotropy =     7.9847

 13  H    Isotropic =    25.5791   Anisotropy =     5.5802

 14  H    Isotropic =    25.1513   Anisotropy =     8.4875

 15  H    Isotropic =    25.1713   Anisotropy =     8.8053

 16  H    Isotropic =    25.8949   Anisotropy =     7.1537

  Exact polarizability: 143.265   1.488  87.943   0.000   0.000  42.913
 Approx polarizability: 206.028  -2.724 152.747   0.002   0.000  65.394

                     1                      2                      3
                     A                      A                      A
 Frequencies --    70.0092               130.6914               178.8574
 Red. masses --     3.5978                 5.1569                 4.8682
 Frc consts  --     0.0104                 0.0519                 0.0918
 IR Inten    --     1.4765                 3.0942                 0.9550

                     4                      5                      6
                     A                      A                      A
 Frequencies --   240.7285               263.5235               312.6682
 Red. masses --     1.1493                 7.7211                 4.5215
 Frc consts  --     0.0392                 0.3159                 0.2604
 IR Inten    --     0.0036                 2.0268                 0.6225

                     7                      8                      9
                     A                      A                      A
 Frequencies --   332.4369               430.0066               486.0490
 Red. masses --     4.6524                 3.1229                 4.1709
 Frc consts  --     0.3029                 0.3402                 0.5805
 IR Inten    --     2.4722                 0.0000                 0.1649

                    10                     11                     12
                     A                      A                      A
 Frequencies --   521.7303               605.6242               645.5282
 Red. masses --     2.6302                 6.0556                 7.0835
 Frc consts  --     0.4218                 1.3086                 1.7391
 IR Inten    --     7.8469                33.7896                 1.8136

                    13                     14                     15
                     A                      A                      A
 Frequencies --   717.6324               809.3601               821.8527
 Red. masses --     3.5214                 5.5785                 1.2816
 Frc consts  --     1.0685                 2.1530                 0.5100
 IR Inten    --     0.0018                 1.0351                 7.5325

                    16                     17                     18
                     A                      A                      A
 Frequencies --   844.1956               953.2465               969.7947
 Red. masses --     1.5930                 1.3287                 1.3139
 Frc consts  --     0.6689                 0.7114                 0.7280
 IR Inten    --    48.5238                 0.0734                 0.0002

                    19                     20                     21
                     A                      A                      A
 Frequencies --  1020.8923              1075.3411              1094.5690
 Red. masses --     4.3296                 7.6454                 2.4284
 Frc consts  --     2.6586                 5.2088                 1.7142
 IR Inten    --    18.8248                62.2715                15.7680

                    22                     23                     24
                     A                      A                      A
 Frequencies --  1139.0832              1184.8024              1206.9335
 Red. masses --     1.3217                 1.2701                 1.1592
 Frc consts  --     1.0104                 1.0504                 0.9949
 IR Inten    --     7.7095                 0.7790                18.9156

                    25                     26                     27
                     A                      A                      A
 Frequencies --  1217.9458              1297.9880              1336.7572
 Red. masses --     1.3778                 4.9621                 1.2830
 Frc consts  --     1.2042                 4.9256                 1.3507
 IR Inten    --     9.5912               254.5093                 1.6404

                    28                     29                     30
                     A                      A                      A
 Frequencies --  1351.5474              1452.3170              1497.8130
 Red. masses --     8.0029                 3.0216                 1.2062
 Frc consts  --     8.6131                 3.7551                 1.5943
 IR Inten    --    59.7633                 0.5124                28.8454

                    31                     32                     33
                     A                      A                      A
 Frequencies --  1520.8506              1532.6961              1544.4085
 Red. masses --     1.0481                 1.1285                 1.9865
 Frc consts  --     1.4283                 1.5620                 2.7917
 IR Inten    --     5.8215                86.4164                95.8151

                    34                     35                     36
                     A                      A                      A
 Frequencies --  1630.9833              1656.1265              3026.6772
 Red. masses --     6.9675                 5.6617                 1.0348
 Frc consts  --    10.9201                 9.1493                 5.5850
 IR Inten    --    11.5956                37.1650                53.2973

                    37                     38                     39
                     A                      A                      A
 Frequencies --  3086.3457              3160.5815              3213.0089
 Red. masses --     1.1069                 1.0997                 1.0881
 Frc consts  --     6.2120                 6.4724                 6.6182
 IR Inten    --    42.6150                24.9736                 4.6801

                    40                     41                     42
                     A                      A                      A
 Frequencies --  3217.1007              3228.7993              3233.6858
 Red. masses --     1.0888                 1.0948                 1.0931
 Frc consts  --     6.6392                 6.7244                 6.7343
 IR Inten    --     2.3274                 4.7862                 6.8250

 - Thermochemistry -
 -------------------
 Temperature   298.150 Kelvin.  Pressure   1.00000 Atm.
 Atom     1 has atomic number  6 and mass  12.00000

 Molecular mass:   185.96803 amu.
 Principal axes and moments of inertia in atomic units:
                           1         2         3
     Eigenvalues --   375.367753983.697204347.53176
           X            0.99989   0.01461  -0.00000
           Y           -0.01461   0.99989  -0.00000
           Z            0.00000   0.00000   1.00000
 This molecule is an asymmetric top.
 Rotational symmetry number  1.
 Rotational temperatures (Kelvin)      0.23074     0.02174     0.01992
 Rotational constants (GHZ):           4.80793     0.45303     0.41512
 Zero-point vibrational energy     324554.0 (Joules/Mol)
                                   77.57026 (Kcal/Mol)
 Warning -- explicit consideration of  11 degrees of freedom as
           vibrations may cause significant error
 Vibrational temperatures:    100.73   188.04   257.34   346.35   379.15
          (Kelvin)            449.86   478.30   618.68   699.32   750.65
                              871.36   928.77  1032.51  1164.49  1182.46
                             1214.61  1371.51  1395.32  1468.83  1547.17
                             1574.84  1638.88  1704.66  1736.51  1752.35
                             1867.51  1923.29  1944.57  2089.56  2155.02
                             2188.16  2205.21  2222.06  2346.62  2382.79
                             4354.71  4440.56  4547.37  4622.80  4628.68
                             4645.52  4652.55

 Zero-point correction=                           0.123616 (Hartree/Particle)
 Thermal correction to Energy=                    0.131909
 Thermal correction to Enthalpy=                  0.132853
 Thermal correction to Gibbs Free Energy=         0.089205
 Sum of electronic and zero-point Energies=          -2917.752365
 Sum of electronic and thermal Energies=             -2917.744072
 Sum of electronic and thermal Enthalpies=           -2917.743128
 Sum of electronic and thermal Free Energies=        -2917.786776

                     E (Thermal)             CV                S
                      KCal/Mol        Cal/Mol-Kelvin    Cal/Mol-Kelvin
 Total                   82.774             30.472             91.865
 Electronic               0.000              0.000              0.000
 Translational            0.889              2.981             41.567
 Rotational               0.889              2.981             30.254
 Vibrational             80.996             24.510             20.044
 Vibration     1          0.598              1.968              4.153
 Vibration     2          0.612              1.923              2.936
 Vibration     3          0.629              1.868              2.340
 Vibration     4          0.658              1.778              1.797
 Vibration     5          0.670              1.740              1.638
 Vibration     6          0.701              1.650              1.348
 Vibration     7          0.714              1.611              1.248
 Vibration     8          0.791              1.405              0.859
 Vibration     9          0.842              1.281              0.694
 Vibration    10          0.877              1.202              0.606
 Vibration    11          0.964              1.020              0.440

 Optimization completed.
    -- Stationary point found.
 Normal termination of Gaussian 09 at Wed Sep 29 00:15:47 2021.
 Gaussian 09:  AM64L-G09RevA.02 11-Jun-2009

 ----------------------------------------------------------------------
 #p TD(NStates=10, Root=1) b3lyp/6-31G* volume pop=NPA density=current
 Geom=AllCheck Guess=Read
 ----------------------------------------------------------------------

 COc1ccc(cc1)Br_conf_0
 ---------------------
 Redundant internal coordinates taken from checkpoint file:
 C7H7BrO_dfe3_conf_0.chk
 Charge =  0 Multiplicity = 1

                         Standard orientation:
 ---------------------------------------------------------------------
 Center     Atomic      Atomic             Coordinates (Angstroms)
 Number     Number       Type             X           Y           Z
 ---------------------------------------------------------------------
      1          6           0       -4.260944   -0.621773    0.000024
      2          8           0       -3.392838    0.500840   -0.000018
      3          6           0       -2.047623    0.276770   -0.000057
      4          6           0       -1.240328    1.424718   -0.000000
      5          6           0        0.144166    1.311630    0.000033
      6          6           0        0.730664    0.044023    0.000007
      7          6           0       -0.056310   -1.101114    0.000009
      8          6           0       -1.450031   -0.989014   -0.000007
      9         35           0        2.638076   -0.114369   -0.000004
     10          1           0       -5.274120   -0.216103    0.000046
     11          1           0       -4.118715   -1.241706    0.895075
     12          1           0       -4.118755   -1.241690   -0.895049
     13          1           0       -1.720613    2.398061    0.000022
     14          1           0        0.766248    2.200118    0.000056
     15          1           0        0.407479   -2.081652    0.000028
     16          1           0       -2.049037   -1.892263    0.000032
 ---------------------------------------------------------------------

 SCF Done:  E(RB3LYP) =  -2917.87598072     A.U. after    2 cycles

 Excitation energies and oscillator strengths:

 Excited State   1:      Singlet-A      4.9235 eV  251.82 nm  f=0.0289  <S**2>=0.000
      45 -> 48        -0.26221
      46 -> 47         0.65142
 This state for optimization and/or second-order correction.
 Total Energy, E(TD-HF/TD-KS) =  -2917.69504456
 Copying the excited state density for this state as the 1-particle RhoCI density.

 Excited State   2:      Singlet-A      5.1960 eV  238.62 nm  f=0.0002  <S**2>=0.000
      46 -> 49         0.70198

 Excited State   3:      Singlet-A      5.6821 eV  218.20 nm  f=0.2512  <S**2>=0.000
      45 -> 47         0.23828
      46 -> 48         0.65690

 Excited State   4:      Singlet-A      6.3696 eV  194.65 nm  f=0.0000  <S**2>=0.000
      45 -> 49         0.70645

 Excited State   5:      Singlet-A      6.4653 eV  191.77 nm  f=0.0001  <S**2>=0.000
      44 -> 47         0.70410

 Excited State   6:      Singlet-A      6.6747 eV  185.75 nm  f=0.0209  <S**2>=0.000
      43 -> 47         0.61594
      44 -> 49        -0.21117
      45 -> 48        -0.22829

 Excited State   7:      Singlet-A      6.7408 eV  183.93 nm  f=0.0201  <S**2>=0.000
      43 -> 47         0.22928
      44 -> 49         0.64900
      45 -> 47        -0.11482

 Excited State   8:      Singlet-A      6.7412 eV  183.92 nm  f=0.0001  <S**2>=0.000
      44 -> 48         0.70232

 Excited State   9:      Singlet-A      6.8313 eV  181.49 nm  f=0.3617  <S**2>=0.000
      41 -> 47        -0.10052
      43 -> 48         0.24866
      44 -> 49         0.15397
      45 -> 47         0.50523
      45 -> 48        -0.28994
      46 -> 47        -0.13078
      46 -> 48        -0.18431

 Excited State  10:      Singlet-A      6.9708 eV  177.86 nm  f=0.2894  <S**2>=0.000
      41 -> 47         0.18831
      43 -> 47         0.25340
      45 -> 47         0.30452
      45 -> 48         0.49565
      46 -> 47         0.18494

 The electronic state is 1-A.
 Alpha  occ. eigenvalues -- -482.90453 -61.86633 -56.38764 -56.38356 -56.38345
 Alpha  occ. eigenvalues --  -19.18556 -10.25655 -10.24778 -10.23892 -10.20454
 Alpha  occ. eigenvalues --  -10.20343 -10.19971 -10.19585  -8.57776  -6.53169
 Alpha  occ. eigenvalues --   -6.51892  -6.51881  -2.64741  -2.64373  -2.64366
 Alpha  occ. eigenvalues --   -2.63347  -2.63347  -1.07172  -0.86935  -0.79689
 Alpha  occ. eigenvalues --   -0.76099  -0.73847  -0.68952  -0.62323  -0.59049
 Alpha  occ. eigenvalues --   -0.54203  -0.49261  -0.47538  -0.47108  -0.45583
 Alpha  occ. eigenvalues --   -0.43549  -0.42390  -0.39110  -0.37499  -0.36459
 Alpha  occ. eigenvalues --   -0.34404  -0.33576  -0.28762  -0.28133  -0.26188
 Alpha  occ. eigenvalues --   -0.21852
 Alpha virt. eigenvalues --   -0.01184   0.00207   0.01160   0.09448   0.10348
 Alpha virt. eigenvalues --    0.13740   0.14367   0.14982   0.15311   0.16200
 Alpha virt. eigenvalues --    0.16915   0.19526   0.22690   0.27072   0.28155

 Mulliken atomic charges:
              1
     1  C   -0.227077
     2  O   -0.451469
     3  C    0.366943
     4  C   -0.200065
     5  C   -0.182500
     6  C    0.084584
     7  C   -0.190766
     8  C   -0.207681
     9  Br  -0.044240
    10  H    0.178803
    11  H    0.171861
    12  H    0.171859
    13  H    0.130239
    14  H    0.137127
    15  H    0.137346
    16  H    0.125037
 Sum of Mulliken atomic charges =  -0.00000

 Dipole moment (field-independent basis, Debye):
    X=             -2.2406    Y=             -1.3515    Z=              0.0001  Tot=              2.6167
 Quadrupole moment (field-independent basis, Debye-Ang):
   XX=            -50.2692   YY=            -62.0167   ZZ=            -67.2761
   XY=              5.4092   XZ=             -0.0002   YZ=             -0.0001

 Summary of Natural Population Analysis:

                                       Natural Population
                Natural  -----------------------------------------------
    Atom  No    Charge         Core      Valence    Rydberg      Total
 -----------------------------------------------------------------------
      C    1   -0.32491      1.99942     4.31147    0.01402     6.32491
      O    2   -0.43456      1.99975     6.42307    0.01175     8.43456
      C    3    0.34673      1.99879     3.63137    0.02310     5.65327
      C    4   -0.33085      1.99905     4.31132    0.02047     6.33085
      C    5   -0.31054      1.99895     4.29069    0.02090     6.31054
      C    6   -0.07200      1.99857     4.05203    0.02139     6.07200
      C    7   -0.31209      1.99894     4.29109    0.02206     6.31209
      C    8   -0.35063      1.99904     4.33438    0.01720     6.35063
     Br    9    0.16228     27.99903     6.82122    0.01746    34.83772
      H   10    0.23221      0.00000     0.76726    0.00053     0.76779
      H   11    0.21697      0.00000     0.78104    0.00198     0.78303
      H   12    0.21697      0.00000     0.78104    0.00198     0.78303
      H   13    0.24135      0.00000     0.75748    0.00118     0.75865
      H   14    0.24406      0.00000     0.75496    0.00098     0.75594
      H   15    0.24345      0.00000     0.75550    0.00104     0.75655
      H   16    0.23155      0.00000     0.76752    0.00093     0.76845
 =======================================================================
   * Total *    0.00000     43.99155    47.83146    0.17699    92.00000

 Normal termination of Gaussian 09 at Wed Sep 29 01:16:05 2021.
