 Gaussian 09, Revision A.02,

 -----------------------------------
 #p opt b3lyp/6-31G* scf=(xqc,tight)
 -----------------------------------

 -----------------------
 COc1ccc(cc1)[Li]_conf_0
 -----------------------
 Symbolic Z-matrix:
 Charge =  0 Multiplicity = 1

 SCF Done:  E(RB3LYP) =  -353.652814316     A.U. after   15 cycles
 SCF Done:  E(RB3LYP) =  -353.660169587     A.U. after   12 cycles
 SCF Done:  E(RB3LYP) =  -353.660986937     A.U. after   11 cycles
 SCF Done:  E(RB3LYP) =  -353.661029517     A.U. after   10 cycles
 SCF Done:  E(RB3LYP) =  -353.661035921     A.U. after    8 cycles
 Optimization completed.
    -- Stationary point found.
 Normal termination of Gaussian 09 at Sat Oct  2 14:09:57 2021.

 ----------------------------------------------------------------------
 #p freq b3lyp/6-31G* volume NMR pop=NPA density=current Geom=AllCheck
 Guess=Read
 ----------------------------------------------------------------------

 COc1ccc(cc1)[Li]_conf_0
 -----------------------
 Redundant internal coordinates taken from checkpoint file:
 C7H7LiO_4221_conf_0.chk
 Charge =  0 Multiplicity = 1

 SCF Done:  E(RB3LYP) =  -353.661035921     A.U. after    1 cycles

  1  C    Isotropic =   138.3684   Anisotropy =    63.2244

  2  O    Isotropic =   244.0663   Anisotropy =    61.8216

  3  C    Isotropic =    40.2753   Anisotropy =   127.7441

  4  C    Isotropic =    80.1494   Anisotropy =   128.9105

  5  C    Isotropic =    53.0714   Anisotropy =   153.5661

  6  C    Isotropic =    41.8707   Anisotropy =   229.4731

  7  C    Isotropic =    53.0750   Anisotropy =   153.3075

  8  C    Isotropic =    87.8070   Anisotropy =   137.0973

  9  Li   Isotropic =    90.7983   Anisotropy =    15.4822

 10  H    Isotropic =    28.5285   Anisotropy =     7.6841

 11  H    Isotropic =    28.7722   Anisotropy =     7.9475

 12  H    Isotropic =    28.7722   Anisotropy =     7.9474

 13  H    Isotropic =    25.9179   Anisotropy =     6.9211

 14  H    Isotropic =    24.6044   Anisotropy =     6.5120

 15  H    Isotropic =    24.5967   Anisotropy =     6.9199

 16  H    Isotropic =    26.1906   Anisotropy =     8.0492

  Exact polarizability: 148.612   3.167  91.371   0.040   0.017  51.739
 Approx polarizability: 196.160   5.263 153.301  -0.000   0.000  69.712

                     1                      2                      3
                     A                      A                      A
 Frequencies --    74.0148               111.1870               113.7109
 Red. masses --     3.5352                 6.4716                 5.4527
 Frc consts  --     0.0114                 0.0471                 0.0415
 IR Inten    --    32.0829                79.3535                34.0420

                     4                      5                      6
                     A                      A                      A
 Frequencies --   225.1193               259.9294               289.0227
 Red. masses --     1.4903                 3.1449                 2.3416
 Frc consts  --     0.0445                 0.1252                 0.1152
 IR Inten    --    16.0130                 3.1990                21.7813

                     7                      8                      9
                     A                      A                      A
 Frequencies --   401.5035               416.7847               510.7195
 Red. masses --     2.8941                 6.0293                 4.5266
 Frc consts  --     0.2749                 0.6171                 0.6956
 IR Inten    --     0.0907                14.6407                36.6887

                    10                     11                     12
                     A                      A                      A
 Frequencies --   528.3227               625.4664               647.7798
 Red. masses --     2.8835                 6.0951                 7.1452
 Frc consts  --     0.4742                 1.4049                 1.7665
 IR Inten    --    10.2022                 8.0150                 0.0566

                    13                     14                     15
                     A                      A                      A
 Frequencies --   719.9970               802.4100               811.4816
 Red. masses --     3.5768                 5.7766                 1.5815
 Frc consts  --     1.0925                 2.1914                 0.6136
 IR Inten    --     0.0063                14.2190                27.4994

                    16                     17                     18
                     A                      A                      A
 Frequencies --   835.8107               937.3790               959.2037
 Red. masses --     1.2920                 1.2783                 1.3388
 Frc consts  --     0.5318                 0.6618                 0.7258
 IR Inten    --     3.9338                 1.4167                 0.3980

                    19                     20                     21
                     A                      A                      A
 Frequencies --  1020.2929              1060.8485              1092.2712
 Red. masses --     5.2533                 3.5800                 3.7797
 Frc consts  --     3.2221                 2.3738                 2.6568
 IR Inten    --     0.3494                 9.5211                52.7885

                    22                     23                     24
                     A                      A                      A
 Frequencies --  1119.1504              1184.9997              1215.1547
 Red. masses --     1.5619                 1.2730                 1.3892
 Frc consts  --     1.1526                 1.0532                 1.2086
 IR Inten    --     1.5164                 0.6295                43.5120

                    25                     26                     27
                     A                      A                      A
 Frequencies --  1218.9074              1276.3680              1306.0982
 Red. masses --     1.2751                 4.6649                 3.7281
 Frc consts  --     1.1162                 4.4776                 3.7470
 IR Inten    --    27.4405               132.2396               207.8482

                    28                     29                     30
                     A                      A                      A
 Frequencies --  1353.4905              1422.9689              1497.0166
 Red. masses --     1.3876                 2.5109                 1.2014
 Frc consts  --     1.4977                 2.9955                 1.5863
 IR Inten    --     6.9186                 4.3887                14.7355

                    31                     32                     33
                     A                      A                      A
 Frequencies --  1517.4828              1529.9291              1537.6689
 Red. masses --     1.0493                 1.8525                 1.1196
 Frc consts  --     1.4237                 2.5548                 1.5597
 IR Inten    --     3.6178                30.0598                16.4898

                    34                     35                     36
                     A                      A                      A
 Frequencies --  1603.3179              1632.5555              3012.0257
 Red. masses --     5.9694                 5.0428                 1.0352
 Frc consts  --     9.0411                 7.9188                 5.5336
 IR Inten    --    16.9359               132.5210                69.3494

                    37                     38                     39
                     A                      A                      A
 Frequencies --  3065.0233              3100.3537              3103.4727
 Red. masses --     1.1060                 1.0869                 1.0869
 Frc consts  --     6.1219                 6.1556                 6.1681
 IR Inten    --    53.9763                41.1577                47.0383

                    40                     41                     42
                     A                      A                      A
 Frequencies --  3141.5457              3186.8069              3196.9618
 Red. masses --     1.0987                 1.0915                 1.0902
 Frc consts  --     6.3885                 6.5312                 6.5649
 IR Inten    --    38.9574                26.6001                32.3362

 - Thermochemistry -
 -------------------
 Temperature   298.150 Kelvin.  Pressure   1.00000 Atm.
 Atom     1 has atomic number  6 and mass  12.00000

 Molecular mass:   114.06569 amu.
 Principal axes and moments of inertia in atomic units:
                           1         2         3
     Eigenvalues --   361.073431571.276551920.86173
           X            0.99953  -0.03061   0.00000
           Y            0.03061   0.99953   0.00000
           Z           -0.00000  -0.00000   1.00000
 This molecule is an asymmetric top.
 Rotational symmetry number  1.
 Rotational temperatures (Kelvin)      0.23988     0.05512     0.04509
 Rotational constants (GHZ):           4.99827     1.14858     0.93955
 Zero-point vibrational energy     320985.3 (Joules/Mol)
                                   76.71733 (Kcal/Mol)
 Warning -- explicit consideration of  10 degrees of freedom as
           vibrations may cause significant error
 Vibrational temperatures:    106.49   159.97   163.60   323.90   373.98
          (Kelvin)            415.84   577.67   599.66   734.81   760.14
                              899.91   932.01  1035.91  1154.49  1167.54
                             1202.54  1348.68  1380.08  1467.97  1526.32
                             1571.53  1610.21  1704.95  1748.33  1753.73
                             1836.41  1879.18  1947.37  2047.33  2153.87
                             2183.32  2201.22  2212.36  2306.81  2348.88
                             4333.63  4409.88  4460.71  4465.20  4519.98
                             4585.10  4599.71

 Zero-point correction=                           0.122257 (Hartree/Particle)
 Thermal correction to Energy=                    0.130670
 Thermal correction to Enthalpy=                  0.131615
 Thermal correction to Gibbs Free Energy=         0.089013
 Sum of electronic and zero-point Energies=           -353.538779
 Sum of electronic and thermal Energies=              -353.530366
 Sum of electronic and thermal Enthalpies=            -353.529421
 Sum of electronic and thermal Free Energies=         -353.572023

                     E (Thermal)             CV                S
                      KCal/Mol        Cal/Mol-Kelvin    Cal/Mol-Kelvin
 Total                   81.997             30.543             89.663
 Electronic               0.000              0.000              0.000
 Translational            0.889              2.981             40.110
 Rotational               0.889              2.981             28.479
 Vibrational             80.219             24.581             21.073
 Vibration     1          0.599              1.966              4.044
 Vibration     2          0.607              1.940              3.248
 Vibration     3          0.607              1.938              3.205
 Vibration     4          0.650              1.803              1.918
 Vibration     5          0.668              1.746              1.662
 Vibration     6          0.686              1.694              1.480
 Vibration     7          0.767              1.467              0.957
 Vibration     8          0.780              1.434              0.903
 Vibration     9          0.866              1.226              0.632
 Vibration    10          0.883              1.187              0.591

 Normal termination of Gaussian 09 at Sat Oct  2 15:05:08 2021.
 Gaussian 09:  AM64L-G09RevA.02 11-Jun-2009

 ----------------------------------------------------------------------
 #p TD(NStates=10, Root=1) b3lyp/6-31G* volume pop=NPA density=current
 Geom=AllCheck Guess=Read
 ----------------------------------------------------------------------

 COc1ccc(cc1)[Li]_conf_0
 -----------------------
 Redundant internal coordinates taken from checkpoint file:
 C7H7LiO_4221_conf_0.chk
 Charge =  0 Multiplicity = 1

                         Standard orientation:
 ---------------------------------------------------------------------
 Center     Atomic      Atomic             Coordinates (Angstroms)
 Number     Number       Type             X           Y           Z
 ---------------------------------------------------------------------
      1          6           0        2.916521   -0.435721    0.000017
      2          8           0        1.967251    0.611437   -0.000015
      3          6           0        0.634780    0.272562   -0.000008
      4          6           0       -0.268191    1.342719   -0.000001
      5          6           0       -1.638955    1.091837    0.000004
      6          6           0       -2.202146   -0.209891    0.000003
      7          6           0       -1.243381   -1.245984   -0.000004
      8          6           0        0.143248   -1.035678   -0.000010
      9          3           0       -4.140884   -0.540578    0.000015
     10          1           0        3.897781    0.044922    0.000036
     11          1           0        2.826790   -1.070239   -0.893296
     12          1           0        2.826747   -1.070223    0.893337
     13          1           0        0.128390    2.355263    0.000001
     14          1           0       -2.293695    1.966844    0.000010
     15          1           0       -1.570552   -2.288880   -0.000007
     16          1           0        0.817915   -1.886509   -0.000017
 ---------------------------------------------------------------------

 SCF Done:  E(RB3LYP) =  -353.661035921     A.U. after    2 cycles

 Excitation energies and oscillator strengths:

 Excited State   1:      Singlet-A      2.7744 eV  446.89 nm  f=0.0096  <S**2>=0.000
      30 -> 31         0.70496
 This state for optimization and/or second-order correction.
 Total Energy, E(TD-HF/TD-KS) =  -353.559079515
 Copying the excited state density for this state as the 1-particle RhoCI density.

 Excited State   2:      Singlet-A      3.0505 eV  406.43 nm  f=0.1009  <S**2>=0.000
      29 -> 31         0.70426

 Excited State   3:      Singlet-A      3.6898 eV  336.02 nm  f=0.0001  <S**2>=0.000
      28 -> 31         0.70614

 Excited State   4:      Singlet-A      4.2474 eV  291.91 nm  f=0.0000  <S**2>=0.000
      30 -> 33         0.70493

 Excited State   5:      Singlet-A      4.3078 eV  287.82 nm  f=0.0322  <S**2>=0.000
      29 -> 33         0.69623

 Excited State   6:      Singlet-A      4.3411 eV  285.61 nm  f=0.0745  <S**2>=0.000
      29 -> 32         0.70513

 Excited State   7:      Singlet-A      4.3615 eV  284.27 nm  f=0.2204  <S**2>=0.000
      30 -> 32         0.69812

 Excited State   8:      Singlet-A      4.9261 eV  251.69 nm  f=0.0074  <S**2>=0.000
      28 -> 32         0.56185
      28 -> 35        -0.12601
      30 -> 34         0.40462

 Excited State   9:      Singlet-A      4.9957 eV  248.18 nm  f=0.0001  <S**2>=0.000
      29 -> 34         0.70647

 Excited State  10:      Singlet-A      5.1204 eV  242.14 nm  f=0.0023  <S**2>=0.000
      28 -> 33         0.70492

 The electronic state is 1-A.
 Alpha  occ. eigenvalues --  -19.14779 -10.21862 -10.20867 -10.14849 -10.14730
 Alpha  occ. eigenvalues --  -10.14627 -10.14390 -10.10797  -1.99812  -1.03221
 Alpha  occ. eigenvalues --   -0.79964  -0.71310  -0.69761  -0.65141  -0.56248
 Alpha  occ. eigenvalues --   -0.54054  -0.49873  -0.44229  -0.43930  -0.41338
 Alpha  occ. eigenvalues --   -0.39708  -0.37534  -0.37299  -0.33897  -0.31945
 Alpha  occ. eigenvalues --   -0.28456  -0.27702  -0.20789  -0.18965  -0.17740
 Alpha virt. eigenvalues --   -0.04926   0.00369   0.00551   0.04088   0.05918
 Alpha virt. eigenvalues --    0.05957   0.11573   0.11818   0.12635   0.13487
 Alpha virt. eigenvalues --    0.14073   0.16855   0.17956   0.18742   0.19202

 Mulliken atomic charges:
              1
     1  C   -0.245589
     2  O   -0.441664
     3  C    0.390168
     4  C   -0.122980
     5  C   -0.189670
     6  C   -0.003089
     7  C   -0.180196
     8  C   -0.150725
     9  Li  -0.298147
    10  H    0.199091
    11  H    0.185877
    12  H    0.185877
    13  H    0.171108
    14  H    0.169816
    15  H    0.172725
    16  H    0.157399
 Sum of Mulliken atomic charges =  -0.00000

 Dipole moment (field-independent basis, Debye):
    X=             13.1567    Y=              0.6574    Z=             -0.0000  Tot=             13.1731
 Quadrupole moment (field-independent basis, Debye-Ang):
   XX=           -105.7156   YY=            -50.0369   ZZ=            -56.1799
   XY=            -12.8138   XZ=              0.0005   YZ=              0.0001

 Summary of Natural Population Analysis:

                                       Natural Population
                Natural  -----------------------------------------------
    Atom  No    Charge         Core      Valence    Rydberg      Total
 -----------------------------------------------------------------------
      C    1   -0.33238      1.99942     4.31846    0.01450     6.33238
      O    2   -0.43263      1.99976     6.42154    0.01134     8.43263
      C    3    0.40168      1.99875     3.57853    0.02103     5.59832
      C    4   -0.23388      1.99902     4.22069    0.01417     6.23388
      C    5   -0.23690      1.99918     4.22152    0.01620     6.23690
      C    6   -0.29833      1.99936     4.27567    0.02329     6.29833
      C    7   -0.19617      1.99918     4.18034    0.01665     6.19617
      C    8   -0.30328      1.99901     4.29243    0.01183     6.30328
     Li    9   -0.05717      1.99878     1.05565    0.00274     3.05717
      H   10    0.24494      0.00000     0.75476    0.00029     0.75506
      H   11    0.22443      0.00000     0.77460    0.00097     0.77557
      H   12    0.22443      0.00000     0.77460    0.00097     0.77557
      H   13    0.25699      0.00000     0.74190    0.00112     0.74301
      H   14    0.24483      0.00000     0.75447    0.00070     0.75517
      H   15    0.24260      0.00000     0.75664    0.00075     0.75740
      H   16    0.24679      0.00000     0.75220    0.00101     0.75321
 =======================================================================
   * Total *   -0.00404     17.99247    41.87402    0.13756    60.00404

 Normal termination of Gaussian 09 at Sat Oct  2 17:41:00 2021.
