 Gaussian 09, Revision A.02,

 -----------------------------------
 #p opt b3lyp/6-31G* scf=(xqc,tight)
 -----------------------------------

 ----------------------
 Br[Mg]c1ccccc1C_conf_0
 ----------------------
 Symbolic Z-matrix:
 Charge =  0 Multiplicity = 1

 SCF Done:  E(RB3LYP) =  -3042.81876808     A.U. after   13 cycles
 SCF Done:  E(RB3LYP) =  -3042.82969968     A.U. after   12 cycles
 SCF Done:  E(RB3LYP) =  -3042.82987546     A.U. after   13 cycles
 SCF Done:  E(RB3LYP) =  -3042.83222346     A.U. after   12 cycles
 SCF Done:  E(RB3LYP) =  -3042.83386847     A.U. after   12 cycles
 SCF Done:  E(RB3LYP) =  -3042.83396398     A.U. after   10 cycles
 SCF Done:  E(RB3LYP) =  -3042.83401136     A.U. after   14 cycles
 SCF Done:  E(RB3LYP) =  -3042.83403390     A.U. after   14 cycles
 SCF Done:  E(RB3LYP) =  -3042.83407810     A.U. after   14 cycles
 SCF Done:  E(RB3LYP) =  -3042.83409115     A.U. after   10 cycles
 SCF Done:  E(RB3LYP) =  -3042.83409133     A.U. after    7 cycles
 SCF Done:  E(RB3LYP) =  -3042.83409138     A.U. after   14 cycles
 Optimization completed.
    -- Stationary point found.
 Normal termination of Gaussian 09 at Sun Oct  3 12:40:12 2021.

 ----------------------------------------------------------------------
 #p freq b3lyp/6-31G* volume NMR pop=NPA density=current Geom=AllCheck
 Guess=Read
 ----------------------------------------------------------------------

 Br[Mg]c1ccccc1C_conf_0
 ----------------------
 Redundant internal coordinates taken from checkpoint file:
 C7H7BrMg_b549_conf_0.chk
 Charge =  0 Multiplicity = 1

 SCF Done:  E(RB3LYP) =  -3042.83409138     A.U. after    1 cycles

  1  Br   Isotropic =  2948.3611   Anisotropy =   251.2633

  2  Mg   Isotropic =   517.9814   Anisotropy =   278.4583

  3  C    Isotropic =    51.3754   Anisotropy =   188.8451

  4  C    Isotropic =    57.8246   Anisotropy =   160.0718

  5  C    Isotropic =    68.6266   Anisotropy =   161.4986

  6  C    Isotropic =    66.1024   Anisotropy =   157.3996

  7  C    Isotropic =    59.5594   Anisotropy =   177.2759

  8  C    Isotropic =    54.4052   Anisotropy =   139.7591

  9  C    Isotropic =   167.5352   Anisotropy =    34.7959

 10  H    Isotropic =    24.8861   Anisotropy =     7.3954

 11  H    Isotropic =    25.2026   Anisotropy =     5.2793

 12  H    Isotropic =    25.0932   Anisotropy =     7.1545

 13  H    Isotropic =    24.9586   Anisotropy =     9.6646

 14  H    Isotropic =    29.8488   Anisotropy =     7.7641

 15  H    Isotropic =    29.8474   Anisotropy =     7.7683

 16  H    Isotropic =    30.5821   Anisotropy =     6.7416

  Exact polarizability: 167.361   0.919 110.701   0.017  -0.006  61.827
 Approx polarizability: 229.099  -2.227 178.333   0.030  -0.011  91.144

 ******    1 imaginary frequencies (negative Signs) ******

                     1                      2                      3
                     A                      A                      A
 Frequencies --   -21.8132                38.4570                52.3057
 Red. masses --     1.0264                 6.1301                 7.1873
 Frc consts  --     0.0003                 0.0053                 0.0116
 IR Inten    --     0.1294                 2.2105                 1.7944

                     4                      5                      6
                     A                      A                      A
 Frequencies --   167.6730               180.8688               185.9764
 Red. masses --    10.1348                 7.9581                10.9702
 Frc consts  --     0.1679                 0.1534                 0.2236
 IR Inten    --    20.2070                36.4801                 8.8189

                     7                      8                      9
                     A                      A                      A
 Frequencies --   211.0655               352.3007               425.7820
 Red. masses --     2.9270                 2.6683                 3.1009
 Frc consts  --     0.0768                 0.1951                 0.3312
 IR Inten    --     0.0140                 2.5360                 6.6070

                    10                     11                     12
                     A                      A                      A
 Frequencies --   482.6134               493.7385               531.5655
 Red. masses --    16.7010                 3.6989                 5.1481
 Frc consts  --     2.2919                 0.5313                 0.8571
 IR Inten    --   111.9183                 1.3014                 2.9216

                    13                     14                     15
                     A                      A                      A
 Frequencies --   678.9790               720.5728               788.0355
 Red. masses --     7.2621                 2.6517                 1.3478
 Frc consts  --     1.9725                 0.8112                 0.4932
 IR Inten    --     8.5912                 9.1383                20.0562

                    16                     17                     18
                     A                      A                      A
 Frequencies --   840.2789               909.4016               919.5852
 Red. masses --     5.3077                 1.3017                 1.3246
 Frc consts  --     2.2080                 0.6342                 0.6600
 IR Inten    --     1.2793                 0.4861                 0.0246

                    19                     20                     21
                     A                      A                      A
 Frequencies --   978.7551              1008.5028              1018.6128
 Red. masses --     1.2950                 3.9692                 1.6711
 Frc consts  --     0.7309                 2.3785                 1.0216
 IR Inten    --     0.0310                 6.9374                 0.9717

                    22                     23                     24
                     A                      A                      A
 Frequencies --  1075.5760              1089.5141              1144.5574
 Red. masses --     1.5237                 2.6161                 1.5610
 Frc consts  --     1.0386                 1.8297                 1.2048
 IR Inten    --     4.2342                 2.6825                 7.9597

                    25                     26                     27
                     A                      A                      A
 Frequencies --  1215.4854              1240.0572              1308.2987
 Red. masses --     1.2050                 2.6651                 4.8026
 Frc consts  --     1.0489                 2.4146                 4.8432
 IR Inten    --     0.7984                 2.1100                 0.9066

                    28                     29                     30
                     A                      A                      A
 Frequencies --  1366.0151              1431.8884              1442.6040
 Red. masses --     1.3409                 2.5324                 1.2478
 Frc consts  --     1.4742                 3.0592                 1.5299
 IR Inten    --     0.4162                13.4272                 0.5186

                    31                     32                     33
                     A                      A                      A
 Frequencies --  1515.1505              1516.0064              1530.4885
 Red. masses --     1.0446                 1.5454                 1.3412
 Frc consts  --     1.4129                 2.0926                 1.8509
 IR Inten    --     4.8462                 8.5431                 2.7830

                    34                     35                     36
                     A                      A                      A
 Frequencies --  1618.7302              1640.2467              3041.3576
 Red. masses --     4.6107                 5.0316                 1.0372
 Frc consts  --     7.1182                 7.9758                 5.6529
 IR Inten    --     0.1729                 5.1621                35.0489

                    37                     38                     39
                     A                      A                      A
 Frequencies --  3093.1634              3120.2809              3129.8950
 Red. masses --     1.1009                 1.1002                 1.0895
 Frc consts  --     6.2059                 6.3113                 6.2881
 IR Inten    --    21.3550                 9.3290                34.9703

                    40                     41                     42
                     A                      A                      A
 Frequencies --  3142.2333              3168.9594              3189.5022
 Red. masses --     1.0875                 1.0879                 1.0956
 Frc consts  --     6.3266                 6.4371                 6.5669
 IR Inten    --    15.3368                16.7117                41.4088

 - Thermochemistry -
 -------------------
 Temperature   298.150 Kelvin.  Pressure   1.00000 Atm.
 Atom     1 has atomic number 35 and mass  78.91834

 Molecular mass:   193.95816 amu.
 Principal axes and moments of inertia in atomic units:
                           1         2         3
     Eigenvalues --   590.601686144.762206724.16923
           X            0.99992   0.01278   0.00001
           Y           -0.01278   0.99992  -0.00001
           Z           -0.00001   0.00001   1.00000
 This molecule is an asymmetric top.
 Rotational symmetry number  1.
 Warning -- assumption of classical behavior for rotation
           may cause significant error
 Rotational temperatures (Kelvin)      0.14665     0.01410     0.01288
 Rotational constants (GHZ):           3.05577     0.29370     0.26840
    1 imaginary frequencies ignored.
 Zero-point vibrational energy     311059.5 (Joules/Mol)
                                   74.34499 (Kcal/Mol)
 Warning -- explicit consideration of  11 degrees of freedom as
           vibrations may cause significant error
 Vibrational temperatures:     55.33    75.26   241.24   260.23   267.58
          (Kelvin)            303.68   506.88   612.60   694.37   710.38
                              764.80   976.90  1036.74  1133.81  1208.97
                             1308.42  1323.08  1408.21  1451.01  1465.55
                             1547.51  1567.57  1646.76  1748.81  1784.16
                             1882.35  1965.39  2060.17  2075.58  2179.96
                             2181.19  2202.03  2328.99  2359.95  4375.83
                             4450.37  4489.38  4503.22  4520.97  4559.42
                             4588.98

 Zero-point correction=                           0.118476 (Hartree/Particle)
 Thermal correction to Energy=                    0.127384
 Thermal correction to Enthalpy=                  0.128329
 Thermal correction to Gibbs Free Energy=         0.081607
 Sum of electronic and zero-point Energies=          -3042.715615
 Sum of electronic and thermal Energies=             -3042.706707
 Sum of electronic and thermal Enthalpies=           -3042.705763
 Sum of electronic and thermal Free Energies=        -3042.752484

                     E (Thermal)             CV                S
                      KCal/Mol        Cal/Mol-Kelvin    Cal/Mol-Kelvin
 Total                   79.935             31.037             98.333
 Electronic               0.000              0.000              0.000
 Translational            0.889              2.981             41.693
 Rotational               0.889              2.981             31.568
 Vibrational             78.157             25.075             25.072
 Vibration     1          0.594              1.982              5.337
 Vibration     2          0.596              1.977              4.728
 Vibration     3          0.624              1.882              2.461
 Vibration     4          0.630              1.866              2.319
 Vibration     5          0.632              1.859              2.268
 Vibration     6          0.643              1.824              2.034
 Vibration     7          0.729              1.571              1.156
 Vibration     8          0.788              1.414              0.873
 Vibration     9          0.839              1.289              0.703
 Vibration    10          0.849              1.264              0.674
 Vibration    11          0.887              1.180              0.584

 Normal termination of Gaussian 09 at Sun Oct  3 13:33:07 2021.
 Gaussian 09:  AM64L-G09RevA.02 11-Jun-2009

 ----------------------------------------------------------------------
 #p TD(NStates=10, Root=1) b3lyp/6-31G* volume pop=NPA density=current
 Geom=AllCheck Guess=Read
 ----------------------------------------------------------------------

 Br[Mg]c1ccccc1C_conf_0
 ----------------------
 Redundant internal coordinates taken from checkpoint file:
 C7H7BrMg_b549_conf_0.chk
 Charge =  0 Multiplicity = 1

                         Standard orientation:
 ---------------------------------------------------------------------
 Center     Atomic      Atomic             Coordinates (Angstroms)
 Number     Number       Type             X           Y           Z
 ---------------------------------------------------------------------
      1         35           0        3.432542   -0.164801   -0.000189
      2         12           0        1.113818    0.105064    0.000382
      3          6           0       -0.944857    0.342553    0.000702
      4          6           0       -1.541808    1.618647    0.000364
      5          6           0       -2.930920    1.772468   -0.000272
      6          6           0       -3.758443    0.651666   -0.000542
      7          6           0       -3.212359   -0.639294   -0.000126
      8          6           0       -1.817171   -0.766457    0.000462
      9          6           0       -4.111199   -1.854989   -0.000145
     10          1           0       -0.927200    2.518689    0.000611
     11          1           0       -3.368734    2.768283   -0.000571
     12          1           0       -4.839695    0.777121   -0.001079
     13          1           0       -1.411084   -1.779130    0.000777
     14          1           0       -4.765335   -1.870448   -0.881002
     15          1           0       -4.762712   -1.872388    0.882638
     16          1           0       -3.529472   -2.782416   -0.001984
 ---------------------------------------------------------------------

 SCF Done:  E(RB3LYP) =  -3042.83409138     A.U. after    1 cycles

 Excitation energies and oscillator strengths:

 Excited State   1:      Singlet-A      4.4713 eV  277.29 nm  f=0.0041  <S**2>=0.000
      47 -> 49        -0.10135
      48 -> 49         0.69745
 This state for optimization and/or second-order correction.
 Total Energy, E(TD-HF/TD-KS) =  -3042.66977412
 Copying the excited state density for this state as the 1-particle RhoCI density.

 Excited State   2:      Singlet-A      4.6496 eV  266.66 nm  f=0.0059  <S**2>=0.000
      47 -> 49         0.69605
      48 -> 49         0.10408

 Excited State   3:      Singlet-A      5.0153 eV  247.21 nm  f=0.0108  <S**2>=0.000
      47 -> 50         0.24928
      47 -> 52        -0.25385
      48 -> 50         0.58619
      48 -> 52         0.16121

 Excited State   4:      Singlet-A      5.3243 eV  232.86 nm  f=0.2270  <S**2>=0.000
      46 -> 49         0.65733
      47 -> 50        -0.14890
      47 -> 53        -0.13780
      48 -> 53         0.11271

 Excited State   5:      Singlet-A      5.3317 eV  232.54 nm  f=0.0001  <S**2>=0.000
      48 -> 51         0.69752

 Excited State   6:      Singlet-A      5.3859 eV  230.20 nm  f=0.0002  <S**2>=0.000
      45 -> 49        -0.44896
      46 -> 50         0.53927

 Excited State   7:      Singlet-A      5.4258 eV  228.51 nm  f=0.3244  <S**2>=0.000
      46 -> 49         0.18360
      47 -> 50         0.58029
      48 -> 50        -0.29992
      48 -> 52         0.16371

 Excited State   8:      Singlet-A      5.4514 eV  227.44 nm  f=0.0355  <S**2>=0.000
      44 -> 49         0.69765
      46 -> 51        -0.10776

 Excited State   9:      Singlet-A      5.5015 eV  225.36 nm  f=0.0618  <S**2>=0.000
      45 -> 49         0.49842
      46 -> 50         0.40101
      47 -> 51         0.29386

 Excited State  10:      Singlet-A      5.5167 eV  224.74 nm  f=0.0183  <S**2>=0.000
      45 -> 49        -0.21781
      46 -> 50        -0.19448
      47 -> 51         0.63378
      48 -> 51         0.10133

 The electronic state is 1-A.
 Alpha  occ. eigenvalues -- -482.87859 -61.84089 -56.35820 -56.35682 -56.35678
 Alpha  occ. eigenvalues --  -46.84400 -10.19352 -10.18621 -10.18545 -10.18531
 Alpha  occ. eigenvalues --  -10.18482 -10.18355 -10.16982  -8.55000  -6.49747
 Alpha  occ. eigenvalues --   -6.49349  -6.49339  -3.13199  -2.61424  -2.61300
 Alpha  occ. eigenvalues --   -2.61293  -2.60976  -2.60976  -1.87835  -1.87774
 Alpha  occ. eigenvalues --   -1.87174  -0.84497  -0.76333  -0.72967  -0.72488
 Alpha  occ. eigenvalues --   -0.67994  -0.59177  -0.56883  -0.50041  -0.45069
 Alpha  occ. eigenvalues --   -0.43531  -0.41772  -0.40213  -0.38457  -0.37728
 Alpha  occ. eigenvalues --   -0.34719  -0.33343  -0.32754  -0.28032  -0.28000
 Alpha  occ. eigenvalues --   -0.25997  -0.24488  -0.23673
 Alpha virt. eigenvalues --   -0.04376  -0.02613  -0.01368   0.00588   0.01979
 Alpha virt. eigenvalues --    0.06858   0.10975   0.11843   0.12626   0.13168
 Alpha virt. eigenvalues --    0.13716   0.15413   0.16500   0.17471   0.18968

 Mulliken atomic charges:
              1
     1  Br  -0.267659
     2  Mg  -0.113514
     3  C    0.016600
     4  C   -0.122741
     5  C   -0.105202
     6  C   -0.149941
     7  C    0.223625
     8  C   -0.228253
     9  C   -0.546116
    10  H    0.189415
    11  H    0.169206
    12  H    0.172480
    13  H    0.158107
    14  H    0.202444
    15  H    0.202594
    16  H    0.198958
 Sum of Mulliken atomic charges =  -0.00000

 Dipole moment (field-independent basis, Debye):
    X=            -14.8511    Y=              0.5632    Z=              0.0007  Tot=             14.8618
 Quadrupole moment (field-independent basis, Debye-Ang):
   XX=            -66.8161   YY=            -63.4662   ZZ=            -74.8437
   XY=              2.4882   XZ=              0.0017   YZ=             -0.0018

 Summary of Natural Population Analysis:

                                       Natural Population
                Natural  -----------------------------------------------
    Atom  No    Charge         Core      Valence    Rydberg      Total
 -----------------------------------------------------------------------
     Br    1   -0.66090     27.99974     7.65079    0.01037    35.66090
     Mg    2    0.60917      9.99829     1.36337    0.02917    11.39083
      C    3   -0.46421      1.99931     4.43045    0.03446     6.46421
      C    4   -0.02836      1.99913     4.01499    0.01424     6.02836
      C    5   -0.24490      1.99914     4.23097    0.01478     6.24490
      C    6   -0.17630      1.99903     4.16404    0.01323     6.17630
      C    7    0.15057      1.99902     3.83688    0.01353     5.84943
      C    8   -0.25378      1.99909     4.24014    0.01455     6.25378
      C    9   -0.71943      1.99938     4.71208    0.00796     6.71943
      H   10    0.23773      0.00000     0.75952    0.00275     0.76227
      H   11    0.25215      0.00000     0.74673    0.00112     0.74785
      H   12    0.24958      0.00000     0.74961    0.00081     0.75042
      H   13    0.23982      0.00000     0.75767    0.00251     0.76018
      H   14    0.27338      0.00000     0.72601    0.00061     0.72662
      H   15    0.27351      0.00000     0.72588    0.00061     0.72649
      H   16    0.26188      0.00000     0.73751    0.00061     0.73812
 =======================================================================
   * Total *   -0.00010     51.99213    43.84666    0.16131    96.00010

 Normal termination of Gaussian 09 at Sun Oct  3 15:27:27 2021.
