 Gaussian 09, Revision A.02,

 -----------------------------------
 #p opt b3lyp/6-31G* scf=(xqc,tight)
 -----------------------------------

 ---------------------
 CC(=O)c1cccnc1_conf_0
 ---------------------
 Symbolic Z-matrix:
 Charge =  0 Multiplicity = 1

 SCF Done:  E(RB3LYP) =  -400.929564397     A.U. after   15 cycles
 SCF Done:  E(RB3LYP) =  -400.931253336     A.U. after   13 cycles
 SCF Done:  E(RB3LYP) =  -400.931429751     A.U. after   13 cycles
 SCF Done:  E(RB3LYP) =  -400.931446018     A.U. after   15 cycles
 SCF Done:  E(RB3LYP) =  -400.931458826     A.U. after   12 cycles
 SCF Done:  E(RB3LYP) =  -400.931474219     A.U. after   11 cycles
 SCF Done:  E(RB3LYP) =  -400.931477149     A.U. after    9 cycles
 SCF Done:  E(RB3LYP) =  -400.931477802     A.U. after    8 cycles
 SCF Done:  E(RB3LYP) =  -400.931477916     A.U. after    8 cycles
 Optimization completed.
    -- Stationary point found.
 Normal termination of Gaussian 09 at Mon Oct  4 08:37:35 2021.

 ----------------------------------------------------------------------
 #p freq b3lyp/6-31G* volume NMR pop=NPA density=current Geom=AllCheck
 Guess=Read
 ----------------------------------------------------------------------

 CC(=O)c1cccnc1_conf_0
 ---------------------
 Redundant internal coordinates taken from checkpoint file:
 C7H7NO_621c_conf_0.chk
 Charge =  0 Multiplicity = 1

 SCF Done:  E(RB3LYP) =  -400.931477916     A.U. after    1 cycles

  1  C    Isotropic =   163.6813   Anisotropy =    39.5184

  2  C    Isotropic =     3.4332   Anisotropy =   155.1476

  3  O    Isotropic =  -276.8625   Anisotropy =   954.7610

  4  C    Isotropic =    65.1969   Anisotropy =   158.1570

  5  C    Isotropic =    60.6185   Anisotropy =   196.5591

  6  C    Isotropic =    72.7038   Anisotropy =   159.0396

  7  C    Isotropic =    43.0498   Anisotropy =   162.6598

  8  N    Isotropic =   -60.5276   Anisotropy =   542.4427

  9  C    Isotropic =    45.0961   Anisotropy =   155.2623

 10  H    Isotropic =    30.1803   Anisotropy =     6.1019

 11  H    Isotropic =    29.6001   Anisotropy =     4.5665

 12  H    Isotropic =    29.6002   Anisotropy =     4.5660

 13  H    Isotropic =    23.9037   Anisotropy =     6.5653

 14  H    Isotropic =    25.0096   Anisotropy =     5.3351

 15  H    Isotropic =    23.4567   Anisotropy =     5.8842

 16  H    Isotropic =    23.1342   Anisotropy =     7.4073

  Exact polarizability: 108.554  -1.071  83.942   0.000   0.001  35.309
 Approx polarizability: 165.178  11.999 152.532  -0.000   0.002  53.587

                     1                      2                      3
                     A                      A                      A
 Frequencies --    68.3994               154.9877               167.0943
 Red. masses --     4.3481                 3.8973                 1.0608
 Frc consts  --     0.0120                 0.0552                 0.0174
 IR Inten    --     7.1032                 0.6984                 0.1762

                     4                      5                      6
                     A                      A                      A
 Frequencies --   214.7908               366.9423               394.8504
 Red. masses --     4.0846                 4.4744                 2.8488
 Frc consts  --     0.1110                 0.3550                 0.2617
 IR Inten    --     8.5567                 1.5663                 0.1200

                     7                      8                      9
                     A                      A                      A
 Frequencies --   424.9373               463.4786               597.6259
 Red. masses --     4.0329                 4.8650                 4.6319
 Frc consts  --     0.4291                 0.6157                 0.9747
 IR Inten    --     2.9758                 0.8961                17.2634

                    10                     11                     12
                     A                      A                      A
 Frequencies --   614.0940               638.6386               723.1216
 Red. masses --     2.6884                 6.6085                 2.0885
 Frc consts  --     0.5973                 1.5880                 0.6434
 IR Inten    --     1.6789                 9.5425                23.4088

                    13                     14                     15
                     A                      A                      A
 Frequencies --   765.5580               832.3967               951.7132
 Red. masses --     6.0435                 1.5342                 1.3632
 Frc consts  --     2.0869                 0.6263                 0.7275
 IR Inten    --     2.3420                14.7590                 0.2599

                    16                     17                     18
                     A                      A                      A
 Frequencies --   970.3815               991.0599              1015.4770
 Red. masses --     2.2279                 1.4206                 1.3465
 Frc consts  --     1.2361                 0.8221                 0.8181
 IR Inten    --    28.0403                 1.0803                 0.8221

                    19                     20                     21
                     A                      A                      A
 Frequencies --  1039.0343              1059.8355              1063.9224
 Red. masses --     4.2484                 1.8454                 3.3415
 Frc consts  --     2.7023                 1.2213                 2.2285
 IR Inten    --    11.4562                 1.3809                 0.0495

                    22                     23                     24
                     A                      A                      A
 Frequencies --  1109.2258              1144.7353              1235.8865
 Red. masses --     1.9908                 1.3960                 1.5006
 Frc consts  --     1.4432                 1.0778                 1.3504
 IR Inten    --     2.6470                15.9027                 5.6444

                    25                     26                     27
                     A                      A                      A
 Frequencies --  1296.1617              1317.8851              1374.8288
 Red. masses --     3.2559                 8.0178                 1.3236
 Frc consts  --     3.2228                 8.2046                 1.4740
 IR Inten    --   157.8613                15.6844                 3.7413

                    28                     29                     30
                     A                      A                      A
 Frequencies --  1416.0236              1463.2628              1498.7563
 Red. masses --     1.3171                 2.1926                 1.0627
 Frc consts  --     1.5560                 2.7661                 1.4065
 IR Inten    --    44.2796                40.0466                 8.0894

                    31                     32                     33
                     A                      A                      A
 Frequencies --  1507.6412              1526.1567              1623.7139
 Red. masses --     1.0476                 2.1690                 5.1459
 Frc consts  --     1.4029                 2.9765                 7.9934
 IR Inten    --    10.3135                 2.4982                11.6611

                    34                     35                     36
                     A                      A                      A
 Frequencies --  1645.4731              1782.1878              3054.8906
 Red. masses --     5.5151                10.7807                 1.0383
 Frc consts  --     8.7980                20.1745                 5.7091
 IR Inten    --    62.6104               156.1412                 2.0451

                    37                     38                     39
                     A                      A                      A
 Frequencies --  3114.4145              3171.0552              3176.9227
 Red. masses --     1.0999                 1.1011                 1.0887
 Frc consts  --     6.2860                 6.5237                 6.4738
 IR Inten    --     8.0368                13.9774                20.6419

                    40                     41                     42
                     A                      A                      A
 Frequencies --  3184.0584              3208.9262              3227.7917
 Red. masses --     1.0906                 1.0916                 1.0942
 Frc consts  --     6.5146                 6.6229                 6.7170
 IR Inten    --    14.6161                12.2643                 5.9901

 - Thermochemistry -
 -------------------
 Temperature   298.150 Kelvin.  Pressure   1.00000 Atm.
 Atom     1 has atomic number  6 and mass  12.00000

 Molecular mass:   121.05276 amu.
 Principal axes and moments of inertia in atomic units:
                           1         2         3
     Eigenvalues --   482.196411470.145301941.11560
           X            0.99857  -0.05348   0.00000
           Y            0.05348   0.99857   0.00000
           Z           -0.00000  -0.00000   1.00000
 This molecule is an asymmetric top.
 Rotational symmetry number  1.
 Warning -- assumption of classical behavior for rotation
           may cause significant error
 Rotational temperatures (Kelvin)      0.17962     0.05892     0.04462
 Rotational constants (GHZ):           3.74275     1.22759     0.92974
 Zero-point vibrational energy     332551.9 (Joules/Mol)
                                   79.48181 (Kcal/Mol)
 Warning -- explicit consideration of  10 degrees of freedom as
           vibrations may cause significant error
 Vibrational temperatures:     98.41   222.99   240.41   309.04   527.95
          (Kelvin)            568.10   611.39   666.84   859.85   883.54
                              918.86  1040.41  1101.47  1197.63  1369.30
                             1396.16  1425.91  1461.04  1494.94  1524.86
                             1530.75  1595.93  1647.02  1778.16  1864.89
                             1896.14  1978.07  2037.34  2105.31  2156.37
                             2169.16  2195.80  2336.16  2367.47  2564.17
                             4395.30  4480.94  4562.44  4570.88  4581.14
                             4616.92  4644.07

 Zero-point correction=                           0.126662 (Hartree/Particle)
 Thermal correction to Energy=                    0.134362
 Thermal correction to Enthalpy=                  0.135306
 Thermal correction to Gibbs Free Energy=         0.094025
 Sum of electronic and zero-point Energies=           -400.804816
 Sum of electronic and thermal Energies=              -400.797116
 Sum of electronic and thermal Enthalpies=            -400.796172
 Sum of electronic and thermal Free Energies=         -400.837453

                     E (Thermal)             CV                S
                      KCal/Mol        Cal/Mol-Kelvin    Cal/Mol-Kelvin
 Total                   84.313             28.564             86.882
 Electronic               0.000              0.000              0.000
 Translational            0.889              2.981             40.288
 Rotational               0.889              2.981             28.711
 Vibrational             82.536             22.602             17.884
 Vibration     1          0.598              1.969              4.199
 Vibration     2          0.620              1.897              2.610
 Vibration     3          0.624              1.883              2.468
 Vibration     4          0.645              1.818              2.003
 Vibration     5          0.740              1.540              1.093
 Vibration     6          0.762              1.481              0.982
 Vibration     7          0.787              1.416              0.875
 Vibration     8          0.821              1.331              0.756
 Vibration     9          0.956              1.037              0.454
 Vibration    10          0.974              1.002              0.426

 Optimization completed.
    -- Stationary point found.
 Normal termination of Gaussian 09 at Mon Oct  4 09:05:35 2021.
 Gaussian 09:  AM64L-G09RevA.02 11-Jun-2009

 ----------------------------------------------------------------------
 #p TD(NStates=10, Root=1) b3lyp/6-31G* volume pop=NPA density=current
 Geom=AllCheck Guess=Read
 ----------------------------------------------------------------------

 CC(=O)c1cccnc1_conf_0
 ---------------------
 Redundant internal coordinates taken from checkpoint file:
 C7H7NO_621c_conf_0.chk
 Charge =  0 Multiplicity = 1

                         Standard orientation:
 ---------------------------------------------------------------------
 Center     Atomic      Atomic             Coordinates (Angstroms)
 Number     Number       Type             X           Y           Z
 ---------------------------------------------------------------------
      1          6           0        2.542362   -1.043397    0.000109
      2          6           0        1.684058    0.209035   -0.000019
      3          8           0        2.193262    1.318920   -0.000178
      4          6           0        0.191201    0.065075    0.000048
      5          6           0       -0.602030    1.221263    0.000105
      6          6           0       -1.984523    1.089943    0.000075
      7          6           0       -2.530091   -0.197647   -0.000025
      8          7           0       -1.796008   -1.316962   -0.000094
      9          6           0       -0.465791   -1.173452   -0.000021
     10          1           0        3.592738   -0.747641    0.000101
     11          1           0        2.338348   -1.660794   -0.882917
     12          1           0        2.338297   -1.660657    0.883214
     13          1           0       -0.112775    2.190241    0.000142
     14          1           0       -2.633864    1.960353    0.000128
     15          1           0       -3.609969   -0.337312   -0.000165
     16          1           0        0.102064   -2.101748   -0.000047
 ---------------------------------------------------------------------

 SCF Done:  E(RB3LYP) =  -400.931477916     A.U. after    1 cycles

 Excitation energies and oscillator strengths:

 Excited State   1:      Singlet-A      3.6576 eV  338.98 nm  f=0.0000  <S**2>=0.000
      31 -> 33        -0.15007
      32 -> 33         0.67860
 This state for optimization and/or second-order correction.
 Total Energy, E(TD-HF/TD-KS) =  -400.797064692
 Copying the excited state density for this state as the 1-particle RhoCI density.

 Excited State   2:      Singlet-A      4.3683 eV  283.83 nm  f=0.0004  <S**2>=0.000
      31 -> 33         0.67850
      32 -> 33         0.16116
      32 -> 35         0.10427

 Excited State   3:      Singlet-A      4.8873 eV  253.69 nm  f=0.0026  <S**2>=0.000
      31 -> 34         0.31549
      32 -> 34         0.63094

 Excited State   4:      Singlet-A      5.1249 eV  241.92 nm  f=0.0642  <S**2>=0.000
      29 -> 33        -0.36507
      29 -> 34         0.17670
      30 -> 33         0.51491
      30 -> 34         0.25794

 Excited State   5:      Singlet-A      5.4489 eV  227.54 nm  f=0.0010  <S**2>=0.000
      31 -> 34         0.63060
      32 -> 34        -0.31335

 Excited State   6:      Singlet-A      5.5689 eV  222.64 nm  f=0.1787  <S**2>=0.000
      29 -> 33         0.46395
      30 -> 33         0.44690
      30 -> 34        -0.27102

 Excited State   7:      Singlet-A      6.3993 eV  193.75 nm  f=0.0017  <S**2>=0.000
      31 -> 33        -0.11763
      32 -> 35         0.68066

 Excited State   8:      Singlet-A      6.4209 eV  193.09 nm  f=0.1563  <S**2>=0.000
      29 -> 33         0.36980
      29 -> 35        -0.19100
      30 -> 34         0.55427

 Excited State   9:      Singlet-A      6.9919 eV  177.33 nm  f=0.0001  <S**2>=0.000
      31 -> 35         0.68736

 Excited State  10:      Singlet-A      7.0327 eV  176.30 nm  f=0.2245  <S**2>=0.000
      29 -> 34         0.59808
      30 -> 33        -0.10828
      30 -> 35         0.31816

 The electronic state is 1-A.
 Alpha  occ. eigenvalues --  -19.14458 -14.34183 -10.28623 -10.23884 -10.23765
 Alpha  occ. eigenvalues --  -10.21828 -10.21298 -10.21064 -10.19649  -1.04419
 Alpha  occ. eigenvalues --   -0.95259  -0.81907  -0.78613  -0.74282  -0.65539
 Alpha  occ. eigenvalues --   -0.63837  -0.56419  -0.52834  -0.49725  -0.47451
 Alpha  occ. eigenvalues --   -0.45565  -0.45180  -0.42793  -0.40981  -0.40711
 Alpha  occ. eigenvalues --   -0.39833  -0.37791  -0.36702  -0.29494  -0.27426
 Alpha  occ. eigenvalues --   -0.27157  -0.25314
 Alpha virt. eigenvalues --   -0.06635  -0.03090   0.02697   0.09187   0.10786
 Alpha virt. eigenvalues --    0.14381   0.14540   0.15403   0.16275   0.17126
 Alpha virt. eigenvalues --    0.18040   0.21310   0.23408   0.26937   0.28976

 Mulliken atomic charges:
              1
     1  C   -0.518475
     2  C    0.324424
     3  O   -0.319721
     4  C    0.078015
     5  C   -0.160386
     6  C   -0.133577
     7  C    0.010381
     8  N   -0.398698
     9  C   -0.018050
    10  H    0.186628
    11  H    0.196649
    12  H    0.196652
    13  H    0.153409
    14  H    0.135738
    15  H    0.136162
    16  H    0.130850
 Sum of Mulliken atomic charges =   0.00000

 Dipole moment (field-independent basis, Debye):
    X=              1.7811    Y=             -0.1433    Z=              0.0003  Tot=              1.7869
 Quadrupole moment (field-independent basis, Debye-Ang):
   XX=            -47.8209   YY=            -52.0625   ZZ=            -53.6546
   XY=             -9.2455   XZ=              0.0005   YZ=              0.0002

 Summary of Natural Population Analysis:

                                       Natural Population
                Natural  -----------------------------------------------
    Atom  No    Charge         Core      Valence    Rydberg      Total
 -----------------------------------------------------------------------
      C    1   -0.71787      1.99933     4.71170    0.00683     6.71787
      C    2    0.39322      1.99929     3.57445    0.03304     5.60678
      O    3   -0.28634      1.99981     6.26835    0.01818     8.28634
      C    4   -0.20689      1.99890     4.19333    0.01466     6.20689
      C    5   -0.20980      1.99905     4.19585    0.01490     6.20980
      C    6   -0.26241      1.99909     4.25023    0.01309     6.26241
      C    7   -0.03830      1.99920     4.01570    0.02340     6.03830
      N    8   -0.39951      1.99943     5.37844    0.02164     7.39951
      C    9    0.01897      1.99913     3.96011    0.02179     5.98103
      H   10    0.25991      0.00000     0.73895    0.00114     0.74009
      H   11    0.26138      0.00000     0.73755    0.00108     0.73862
      H   12    0.26138      0.00000     0.73754    0.00108     0.73862
      H   13    0.24694      0.00000     0.75223    0.00083     0.75306
      H   14    0.24185      0.00000     0.75724    0.00091     0.75815
      H   15    0.22156      0.00000     0.77749    0.00095     0.77844
      H   16    0.21593      0.00000     0.78296    0.00111     0.78407
 =======================================================================
   * Total *   -0.00000     17.99323    45.83213    0.17464    64.00000

 Normal termination of Gaussian 09 at Mon Oct  4 09:57:35 2021.
