 Gaussian 09, Revision A.02,

 -----------------------------------
 #p opt b3lyp/genecp scf=(xqc,tight)
 -----------------------------------

 -----------------------
 I[Mg]c1ccc(cc1)C_conf_0
 -----------------------
 Symbolic Z-matrix:
 Charge =  0 Multiplicity = 1

 SCF Done:  E(RB3LYP) =  -482.486741134     A.U. after   13 cycles
 SCF Done:  E(RB3LYP) =  -482.494546922     A.U. after   11 cycles
 SCF Done:  E(RB3LYP) =  -482.495912166     A.U. after   11 cycles
 SCF Done:  E(RB3LYP) =  -482.490470332     A.U. after   14 cycles
 SCF Done:  E(RB3LYP) =  -482.496045950     A.U. after   14 cycles
 SCF Done:  E(RB3LYP) =  -482.496091462     A.U. after    9 cycles
 SCF Done:  E(RB3LYP) =  -482.496093326     A.U. after    8 cycles
 SCF Done:  E(RB3LYP) =  -482.496093840     A.U. after    7 cycles
 SCF Done:  E(RB3LYP) =  -482.496093993     A.U. after    7 cycles
 SCF Done:  E(RB3LYP) =  -482.496094035     A.U. after   14 cycles
 Optimization completed.
    -- Stationary point found.
 Normal termination of Gaussian 09 at Sun Oct  3 08:59:15 2021.

 ----------------------------------------------------------------------
 #p freq b3lyp/genecp volume NMR pop=NPA density=current Geom=AllCheck
 Guess=Read
 ----------------------------------------------------------------------

 I[Mg]c1ccc(cc1)C_conf_0
 -----------------------
 Redundant internal coordinates taken from checkpoint file:
 C7H7IMg_9536_conf_0.chk
 Charge =  0 Multiplicity = 1

 SCF Done:  E(RB3LYP) =  -482.496094035     A.U. after    1 cycles

  1  I    Isotropic =    62.3716   Anisotropy =     6.0645

  2  Mg   Isotropic =   510.0090   Anisotropy =   287.0086

  3  C    Isotropic =    53.6586   Anisotropy =   187.6361

  4  C    Isotropic =    55.8805   Anisotropy =   159.0979

  5  C    Isotropic =    67.4098   Anisotropy =   143.4911

  6  C    Isotropic =    57.2439   Anisotropy =   182.6238

  7  C    Isotropic =    68.0027   Anisotropy =   152.5374

  8  C    Isotropic =    56.1540   Anisotropy =   159.5832

  9  C    Isotropic =   168.0044   Anisotropy =    34.8716

 10  H    Isotropic =    24.7205   Anisotropy =     7.9938

 11  H    Isotropic =    25.3352   Anisotropy =     7.0778

 12  H    Isotropic =    25.2038   Anisotropy =     7.5752

 13  H    Isotropic =    24.6531   Anisotropy =     8.0155

 14  H    Isotropic =    30.5098   Anisotropy =     6.9306

 15  H    Isotropic =    29.8022   Anisotropy =     7.7436

 16  H    Isotropic =    29.8024   Anisotropy =     7.7428

  Exact polarizability: 203.171  -0.656 103.409   0.004  -0.000  61.900
 Approx polarizability: 259.957  -1.261 167.733   0.005  -0.000  83.937

 ******    1 imaginary frequencies (negative Signs) ******

                     1                      2                      3
                     A                      A                      A
 Frequencies --   -31.9396                35.2001                36.7975
 Red. masses --     1.0507                 6.4869                 6.1742
 Frc consts  --     0.0006                 0.0047                 0.0049
 IR Inten    --     0.1774                 2.4883                 1.3875

                     4                      5                      6
                     A                      A                      A
 Frequencies --   130.7025               147.1812               170.0490
 Red. masses --     6.7219                10.6700                 9.2484
 Frc consts  --     0.0677                 0.1362                 0.1576
 IR Inten    --    23.5309                 1.5417                26.7929

                     7                      8                      9
                     A                      A                      A
 Frequencies --   257.2393               344.3891               397.7687
 Red. masses --     4.2275                 2.5934                 2.8562
 Frc consts  --     0.1648                 0.1812                 0.2663
 IR Inten    --     9.2083                 0.7823                 0.0000

                    10                     11                     12
                     A                      A                      A
 Frequencies --   424.3985               491.5397               595.7104
 Red. masses --    12.9192                 2.9599                 5.9619
 Frc consts  --     1.3710                 0.4214                 1.2465
 IR Inten    --    98.3696                16.5639                38.8964

                    13                     14                     15
                     A                      A                      A
 Frequencies --   651.7830               724.3353               801.7752
 Red. masses --     6.9902                 3.9163                 1.2658
 Frc consts  --     1.7496                 1.2106                 0.4794
 IR Inten    --     0.0175                 0.0000                22.3064

                    16                     17                     18
                     A                      A                      A
 Frequencies --   805.4710               866.8717               960.6290
 Red. masses --     5.0752                 1.2526                 1.3500
 Frc consts  --     1.9400                 0.5546                 0.7340
 IR Inten    --     0.1709                 0.0032                 0.0040

                    19                     20                     21
                     A                      A                      A
 Frequencies --   964.3273              1012.4528              1030.6357
 Red. masses --     1.2697                 1.5218                 4.2559
 Frc consts  --     0.6957                 0.9191                 2.6635
 IR Inten    --     0.0000                 3.2543                 4.8053

                    22                     23                     24
                     A                      A                      A
 Frequencies --  1074.9289              1084.2438              1140.3571
 Red. masses --     1.5285                 3.0753                 1.4632
 Frc consts  --     1.0406                 2.1300                 1.1211
 IR Inten    --     4.4516                14.1638                 0.7977

                    25                     26                     27
                     A                      A                      A
 Frequencies --  1229.7357              1244.7326              1305.3888
 Red. masses --     1.2854                 2.3246                 5.5471
 Frc consts  --     1.1453                 2.1220                 5.5692
 IR Inten    --     9.2331                 2.7205                 6.0453

                    28                     29                     30
                     A                      A                      A
 Frequencies --  1358.5572              1428.7454              1441.3677
 Red. masses --     1.3833                 2.2639                 1.2492
 Frc consts  --     1.5043                 2.7228                 1.5291
 IR Inten    --     1.4948                 8.5277                 0.0462

                    31                     32                     33
                     A                      A                      A
 Frequencies --  1515.2273              1519.4430              1539.9977
 Red. masses --     1.0444                 1.1122                 2.1203
 Frc consts  --     1.4128                 1.5129                 2.9627
 IR Inten    --     5.5169                10.0137                 0.5564

                    34                     35                     36
                     A                      A                      A
 Frequencies --  1602.3438              1648.3873              3042.9337
 Red. masses --     4.4819                 5.3520                 1.0374
 Frc consts  --     6.7799                 8.5682                 5.6598
 IR Inten    --     0.3564                13.1399                35.0054

                    37                     38                     39
                     A                      A                      A
 Frequencies --  3094.1894              3124.6478              3141.0605
 Red. masses --     1.1008                 1.1009                 1.0869
 Frc consts  --     6.2094                 6.3327                 6.3179
 IR Inten    --    20.6599                18.2120                 4.9840

                    40                     41                     42
                     A                      A                      A
 Frequencies --  3142.3229              3172.8970              3176.5172
 Red. masses --     1.0875                 1.0925                 1.0929
 Frc consts  --     6.3265                 6.4802                 6.4973
 IR Inten    --    22.2813                47.6904                26.7274

 - Thermochemistry -
 -------------------
 Temperature   298.150 Kelvin.  Pressure   1.00000 Atm.
 Atom     1 has atomic number 53 and mass 126.90040

 Molecular mass:   241.94022 amu.
 Principal axes and moments of inertia in atomic units:
                           1         2         3
     Eigenvalues --   324.279008930.888699243.97542
           X            1.00000  -0.00000   0.00000
           Y            0.00000   1.00000  -0.00000
           Z           -0.00000   0.00000   1.00000
 This molecule is an asymmetric top.
 Rotational symmetry number  1.
 Rotational temperatures (Kelvin)      0.26710     0.00970     0.00937
 Rotational constants (GHZ):           5.56540     0.20208     0.19523
    1 imaginary frequencies ignored.
 Zero-point vibrational energy     310295.1 (Joules/Mol)
                                   74.16230 (Kcal/Mol)
 Warning -- explicit consideration of  11 degrees of freedom as
           vibrations may cause significant error
 Vibrational temperatures:     50.65    52.94   188.05   211.76   244.66
          (Kelvin)            370.11   495.50   572.30   610.61   707.22
                              857.09   937.77  1042.16  1153.57  1158.89
                             1247.23  1382.13  1387.45  1456.69  1482.85
                             1546.58  1559.98  1640.72  1769.31  1790.89
                             1878.16  1954.66  2055.64  2073.80  2180.07
                             2186.14  2215.71  2305.41  2371.66  4378.10
                             4451.84  4495.67  4519.28  4521.10  4565.09
                             4570.29

 Zero-point correction=                           0.118185 (Hartree/Particle)
 Thermal correction to Energy=                    0.127278
 Thermal correction to Enthalpy=                  0.128222
 Thermal correction to Gibbs Free Energy=         0.080294
 Sum of electronic and zero-point Energies=           -482.377909
 Sum of electronic and thermal Energies=              -482.368816
 Sum of electronic and thermal Enthalpies=            -482.367872
 Sum of electronic and thermal Free Energies=         -482.415800

                     E (Thermal)             CV                S
                      KCal/Mol        Cal/Mol-Kelvin    Cal/Mol-Kelvin
 Total                   79.868             31.231            100.873
 Electronic               0.000              0.000              0.000
 Translational            0.889              2.981             42.352
 Rotational               0.889              2.981             31.660
 Vibrational             78.091             25.269             26.861
 Vibration     1          0.594              1.982              5.512
 Vibration     2          0.594              1.982              5.424
 Vibration     3          0.612              1.923              2.936
 Vibration     4          0.617              1.906              2.708
 Vibration     5          0.625              1.879              2.435
 Vibration     6          0.667              1.751              1.680
 Vibration     7          0.723              1.587              1.192
 Vibration     8          0.764              1.475              0.971
 Vibration     9          0.786              1.417              0.877
 Vibration    10          0.847              1.269              0.680
 Vibration    11          0.953              1.041              0.457

 Normal termination of Gaussian 09 at Sun Oct  3 09:44:52 2021.
 Gaussian 09:  AM64L-G09RevA.02 11-Jun-2009

 ----------------------------------------------------------------------
 #p TD(NStates=10, Root=1) b3lyp/genecp volume pop=NPA density=current
 Geom=AllCheck Guess=Read
 ----------------------------------------------------------------------

 I[Mg]c1ccc(cc1)C_conf_0
 -----------------------
 Redundant internal coordinates taken from checkpoint file:
 C7H7IMg_9536_conf_0.chk
 Charge =  0 Multiplicity = 1

                         Standard orientation:
 ---------------------------------------------------------------------
 Center     Atomic      Atomic             Coordinates (Angstroms)
 Number     Number       Type             X           Y           Z
 ---------------------------------------------------------------------
      1         53           0       -3.134928    0.000775    0.000081
      2         12           0       -0.553539   -0.005045   -0.000303
      3          6           0        1.520657   -0.004894   -0.000264
      4          6           0        2.261257    1.194207   -0.000179
      5          6           0        3.658950    1.201482    0.000012
      6          6           0        4.386273    0.006141    0.000113
      7          6           0        3.666882   -1.197563    0.000013
      8          6           0        2.272024   -1.200412   -0.000175
      9          6           0        5.897462    0.004702    0.000275
     10          1           0        1.752100    2.158100   -0.000267
     11          1           0        4.192268    2.150408    0.000078
     12          1           0        4.206928   -2.143109    0.000081
     13          1           0        1.768659   -2.167295   -0.000262
     14          1           0        6.298358    1.023261    0.000692
     15          1           0        6.297240   -0.511606   -0.881610
     16          1           0        6.297050   -0.512268    0.881854
 ---------------------------------------------------------------------

 SCF Done:  E(RB3LYP) =  -482.496094035     A.U. after    1 cycles

 Excitation energies and oscillator strengths:

 Excited State   1:      Singlet-A      4.3279 eV  286.48 nm  f=0.0065  <S**2>=0.000
      34 -> 35         0.70247
 This state for optimization and/or second-order correction.
 Total Energy, E(TD-HF/TD-KS) =  -482.337047141
 Copying the excited state density for this state as the 1-particle RhoCI density.

 Excited State   2:      Singlet-A      4.5953 eV  269.81 nm  f=0.0000  <S**2>=0.000
      33 -> 35         0.70564

 Excited State   3:      Singlet-A      4.8503 eV  255.62 nm  f=0.0443  <S**2>=0.000
      31 -> 35         0.70135

 Excited State   4:      Singlet-A      4.8522 eV  255.52 nm  f=0.0392  <S**2>=0.000
      30 -> 35         0.70489

 Excited State   5:      Singlet-A      5.0619 eV  244.94 nm  f=0.0020  <S**2>=0.000
      33 -> 36         0.60378
      34 -> 38         0.34814

 Excited State   6:      Singlet-A      5.1366 eV  241.37 nm  f=0.0000  <S**2>=0.000
      34 -> 37         0.70507

 Excited State   7:      Singlet-A      5.1491 eV  240.79 nm  f=0.0225  <S**2>=0.000
      32 -> 35        -0.31419
      34 -> 36         0.59662
      34 -> 39         0.16364

 Excited State   8:      Singlet-A      5.2420 eV  236.52 nm  f=0.7227  <S**2>=0.000
      30 -> 37        -0.11492
      31 -> 36        -0.10661
      32 -> 35         0.58381
      34 -> 36         0.34252

 Excited State   9:      Singlet-A      5.3682 eV  230.96 nm  f=0.0203  <S**2>=0.000
      32 -> 36         0.68514
      33 -> 37        -0.14700

 Excited State  10:      Singlet-A      5.4040 eV  229.43 nm  f=0.0041  <S**2>=0.000
      32 -> 36         0.14460
      33 -> 37         0.69093

 The electronic state is 1-A.
 Alpha  occ. eigenvalues --  -46.84446 -10.19254 -10.18377 -10.18360 -10.17859
 Alpha  occ. eigenvalues --  -10.17835 -10.17726 -10.16617  -3.13814  -1.88410
 Alpha  occ. eigenvalues --   -1.88347  -1.87765  -0.84666  -0.76120  -0.73816
 Alpha  occ. eigenvalues --   -0.67531  -0.64988  -0.59843  -0.57282  -0.48686
 Alpha  occ. eigenvalues --   -0.45260  -0.44574  -0.41953  -0.41296  -0.38391
 Alpha  occ. eigenvalues --   -0.37355  -0.34853  -0.33247  -0.31337  -0.26182
 Alpha  occ. eigenvalues --   -0.26152  -0.26110  -0.24643  -0.23848
 Alpha virt. eigenvalues --   -0.04955  -0.03008  -0.02122   0.00143   0.01732
 Alpha virt. eigenvalues --    0.06852   0.10745   0.11001   0.12411   0.12942
 Alpha virt. eigenvalues --    0.13142   0.15296   0.16307   0.17296   0.18966

 Mulliken atomic charges:
              1
     1  I   -0.275482
     2  Mg  -0.075188
     3  C    0.033434
     4  C   -0.152575
     5  C   -0.145884
     6  C    0.199340
     7  C   -0.133714
     8  C   -0.163922
     9  C   -0.542893
    10  H    0.170161
    11  H    0.159779
    12  H    0.161893
    13  H    0.167475
    14  H    0.187839
    15  H    0.204879
    16  H    0.204860
 Sum of Mulliken atomic charges =  -0.00000

 Dipole moment (field-independent basis, Debye):
    X=             15.4425    Y=             -0.0812    Z=              0.0017  Tot=             15.4427
 Quadrupole moment (field-independent basis, Debye-Ang):
   XX=            -51.3730   YY=            -69.4883   ZZ=            -76.8732
   XY=             -0.6617   XZ=              0.0002   YZ=             -0.0001

 Summary of Natural Population Analysis:

                                       Natural Population
                Natural  -----------------------------------------------
    Atom  No    Charge         Core      Valence    Rydberg      Total
 -----------------------------------------------------------------------
      I    1   -0.60100     46.00000     7.59835    0.00265    53.60100
     Mg    2    0.58488      9.99855     1.38096    0.03561    11.41512
      C    3   -0.35117      1.99922     4.31795    0.03400     6.35117
      C    4   -0.18960      1.99901     4.17429    0.01630     6.18960
      C    5   -0.22381      1.99889     4.21118    0.01373     6.22381
      C    6    0.13399      1.99887     3.85337    0.01377     5.86601
      C    7   -0.19831      1.99888     4.18582    0.01360     6.19831
      C    8   -0.22096      1.99902     4.20543    0.01651     6.22096
      C    9   -0.71307      1.99924     4.70565    0.00818     6.71307
      H   10    0.24174      0.00000     0.75586    0.00240     0.75826
      H   11    0.24649      0.00000     0.75207    0.00144     0.75351
      H   12    0.24593      0.00000     0.75260    0.00147     0.75407
      H   13    0.24294      0.00000     0.75474    0.00232     0.75706
      H   14    0.25471      0.00000     0.74446    0.00083     0.74529
      H   15    0.27358      0.00000     0.72564    0.00079     0.72642
      H   16    0.27356      0.00000     0.72565    0.00079     0.72644
 =======================================================================
   * Total *   -0.00008     69.99168    43.84402    0.16438   114.00008

 Normal termination of Gaussian 09 at Sun Oct  3 11:33:47 2021.
