 Gaussian 09, Revision A.02,

 -----------------------------------
 #p opt b3lyp/6-31G* scf=(xqc,tight)
 -----------------------------------

 -----------------
 COc1ccccc1_conf_0
 -----------------
 Symbolic Z-matrix:
 Charge =  0 Multiplicity = 1

 SCF Done:  E(RB3LYP) =  -346.770450516     A.U. after   14 cycles
 SCF Done:  E(RB3LYP) =  -346.771261427     A.U. after   11 cycles
 SCF Done:  E(RB3LYP) =  -346.771306623     A.U. after   11 cycles
 SCF Done:  E(RB3LYP) =  -346.771314333     A.U. after    9 cycles
 SCF Done:  E(RB3LYP) =  -346.771318704     A.U. after    9 cycles
 SCF Done:  E(RB3LYP) =  -346.771320702     A.U. after    8 cycles
 SCF Done:  E(RB3LYP) =  -346.771320949     A.U. after   16 cycles
 Optimization completed.
    -- Stationary point found.
 Normal termination of Gaussian 09 at Tue Sep 28 15:46:01 2021.

 ----------------------------------------------------------------------
 #p freq b3lyp/6-31G* volume NMR pop=NPA density=current Geom=AllCheck
 Guess=Read
 ----------------------------------------------------------------------

 COc1ccccc1_conf_0
 -----------------
 Redundant internal coordinates taken from checkpoint file:
 C7H8O_1d31_conf_0.chk
 Charge =  0 Multiplicity = 1

 SCF Done:  E(RB3LYP) =  -346.771320949     A.U. after    1 cycles

  1  C    Isotropic =   137.5998   Anisotropy =    64.5290

  2  O    Isotropic =   238.1137   Anisotropy =    75.5849

  3  C    Isotropic =    39.1598   Anisotropy =   128.8063

  4  C    Isotropic =    78.6214   Anisotropy =   136.2645

  5  C    Isotropic =    67.3601   Anisotropy =   164.3869

  6  C    Isotropic =    76.4840   Anisotropy =   156.0644

  7  C    Isotropic =    67.4053   Anisotropy =   164.3019

  8  C    Isotropic =    86.8994   Anisotropy =   143.9633

  9  H    Isotropic =    28.3187   Anisotropy =     7.8206

 10  H    Isotropic =    28.6597   Anisotropy =     7.9586

 11  H    Isotropic =    28.6596   Anisotropy =     7.9584

 12  H    Isotropic =    25.4981   Anisotropy =     5.8663

 13  H    Isotropic =    25.0585   Anisotropy =     4.3675

 14  H    Isotropic =    25.4236   Anisotropy =     3.8999

 15  H    Isotropic =    25.0564   Anisotropy =     4.7934

 16  H    Isotropic =    25.8188   Anisotropy =     7.1795

  Exact polarizability: 101.882   0.849  80.094  -0.000   0.000  32.949
 Approx polarizability: 152.068  -2.232 135.513  -0.001   0.000  47.996

                     1                      2                      3
                     A                      A                      A
 Frequencies --    93.1001               214.2865               260.0538
 Red. masses --     3.1464                 1.8204                 3.0417
 Frc consts  --     0.0161                 0.0492                 0.1212
 IR Inten    --     4.4703                 0.3817                 2.3831

                     4                      5                      6
                     A                      A                      A
 Frequencies --   280.0748               426.0162               448.0472
 Red. masses --     1.6046                 3.1185                 4.6853
 Frc consts  --     0.0742                 0.3335                 0.5542
 IR Inten    --     0.6095                 0.0066                 0.8812

                     7                      8                      9
                     A                      A                      A
 Frequencies --   521.8493               560.7133               629.6893
 Red. masses --     2.8817                 5.0307                 6.4178
 Frc consts  --     0.4624                 0.9319                 1.4993
 IR Inten    --     4.1405                 5.8524                 0.3628

                    10                     11                     12
                     A                      A                      A
 Frequencies --   702.9566               767.7528               803.2421
 Red. masses --     2.3405                 1.5935                 5.2014
 Frc consts  --     0.6814                 0.5534                 1.9773
 IR Inten    --    10.9067                56.3012                14.3058

                    13                     14                     15
                     A                      A                      A
 Frequencies --   831.1407               892.6598               956.2997
 Red. masses --     1.2468                 1.4566                 1.3196
 Frc consts  --     0.5074                 0.6838                 0.7110
 IR Inten    --     0.0055                 7.5912                 0.0395

                    16                     17                     18
                     A                      A                      A
 Frequencies --   982.4624              1013.3941              1051.9882
 Red. masses --     1.2256                 5.8012                 2.5163
 Frc consts  --     0.6970                 3.5101                 1.6407
 IR Inten    --     0.3050                 0.6855                 2.3499

                    19                     20                     21
                     A                      A                      A
 Frequencies --  1083.6357              1113.0023              1184.8231
 Red. masses --     4.1258                 1.5349                 1.2713
 Frc consts  --     2.8544                 1.1203                 1.0515
 IR Inten    --    48.9557                 9.1934                 0.7442

                    22                     23                     24
                     A                      A                      A
 Frequencies --  1189.1914              1206.9780              1218.5457
 Red. masses --     1.1010                 1.1425                 1.3955
 Frc consts  --     0.9174                 0.9806                 1.2209
 IR Inten    --     2.4558                12.2487                 6.2820

                    25                     26                     27
                     A                      A                      A
 Frequencies --  1296.4515              1351.5900              1374.0236
 Red. masses --     4.4321                 1.8798                 2.7721
 Frc consts  --     4.3891                 2.0232                 3.0835
 IR Inten    --   222.4197                17.8366                20.1745

                    28                     29                     30
                     A                      A                      A
 Frequencies --  1497.6651              1506.0309              1520.9352
 Red. masses --     1.2799                 2.0209                 1.0483
 Frc consts  --     1.6915                 2.7006                 1.4287
 IR Inten    --    14.4357                 5.9997                 5.1154

                    31                     32                     33
                     A                      A                      A
 Frequencies --  1535.5515              1552.1239              1645.5999
 Red. masses --     1.0937                 2.0998                 5.8959
 Frc consts  --     1.5194                 2.9805                 9.4070
 IR Inten    --    45.5330                59.2253                17.8515

                    34                     35                     36
                     A                      A                      A
 Frequencies --  1666.2641              3023.4786              3081.1976
 Red. masses --     5.5553                 1.0349                 1.1066
 Frc consts  --     9.0875                 5.5742                 6.1898
 IR Inten    --    68.3824                52.4777                46.3922

                    37                     38                     39
                     A                      A                      A
 Frequencies --  3155.5054              3182.7664              3190.6557
 Red. masses --     1.0995                 1.0851                 1.0893
 Frc consts  --     6.4503                 6.4763                 6.5336
 IR Inten    --    27.1851                 2.0233                15.8457

                    40                     41                     42
                     A                      A                      A
 Frequencies --  3207.1321              3216.0578              3223.1511
 Red. masses --     1.0930                 1.0951                 1.0926
 Frc consts  --     6.6237                 6.6732                 6.6878
 IR Inten    --    30.6298                12.5769                 7.9940

 - Thermochemistry -
 -------------------
 Temperature   298.150 Kelvin.  Pressure   1.00000 Atm.
 Atom     1 has atomic number  6 and mass  12.00000

 Molecular mass:   108.05751 amu.
 Principal axes and moments of inertia in atomic units:
                           1         2         3
     Eigenvalues --   358.326361156.956891503.76459
           X            0.99975   0.02229  -0.00000
           Y           -0.02229   0.99975   0.00000
           Z            0.00000  -0.00000   1.00000
 This molecule is an asymmetric top.
 Rotational symmetry number  1.
 Rotational temperatures (Kelvin)      0.24172     0.07486     0.05760
 Rotational constants (GHZ):           5.03659     1.55990     1.20015
 Zero-point vibrational energy     350853.2 (Joules/Mol)
                                   83.85594 (Kcal/Mol)
 Warning -- explicit consideration of   8 degrees of freedom as
           vibrations may cause significant error
 Vibrational temperatures:    133.95   308.31   374.16   402.96   612.94
          (Kelvin)            644.64   750.82   806.74   905.98  1011.40
                             1104.62  1155.68  1195.82  1284.34  1375.90
                             1413.54  1458.05  1513.57  1559.11  1601.36
                             1704.69  1710.98  1736.57  1753.21  1865.30
                             1944.63  1976.91  2154.80  2166.84  2188.28
                             2209.31  2233.16  2367.65  2397.38  4350.11
                             4433.15  4540.06  4579.29  4590.64  4614.34
                             4627.18  4637.39

 Zero-point correction=                           0.133633 (Hartree/Particle)
 Thermal correction to Energy=                    0.140481
 Thermal correction to Enthalpy=                  0.141425
 Thermal correction to Gibbs Free Energy=         0.102585
 Sum of electronic and zero-point Energies=           -346.637688
 Sum of electronic and thermal Energies=              -346.630840
 Sum of electronic and thermal Enthalpies=            -346.629896
 Sum of electronic and thermal Free Energies=         -346.668735

                     E (Thermal)             CV                S
                      KCal/Mol        Cal/Mol-Kelvin    Cal/Mol-Kelvin
 Total                   88.153             26.261             81.744
 Electronic               0.000              0.000              0.000
 Translational            0.889              2.981             39.949
 Rotational               0.889              2.981             27.924
 Vibrational             86.376             20.300             13.871
 Vibration     1          0.602              1.954              3.594
 Vibration     2          0.644              1.819              2.007
 Vibration     3          0.668              1.746              1.661
 Vibration     4          0.680              1.710              1.533
 Vibration     5          0.788              1.414              0.872
 Vibration     6          0.807              1.365              0.802
 Vibration     7          0.877              1.202              0.606
 Vibration     8          0.916              1.116              0.522

 Optimization completed.
    -- Stationary point found.
 Normal termination of Gaussian 09 at Tue Sep 28 16:03:24 2021.
 Gaussian 09:  AM64L-G09RevA.02 11-Jun-2009

 ----------------------------------------------------------------------
 #p TD(NStates=10, Root=1) b3lyp/6-31G* volume pop=NPA density=current
 Geom=AllCheck Guess=Read
 ----------------------------------------------------------------------

 COc1ccccc1_conf_0
 -----------------
 Redundant internal coordinates taken from checkpoint file:
 C7H8O_1d31_conf_0.chk
 Charge =  0 Multiplicity = 1

                         Standard orientation:
 ---------------------------------------------------------------------
 Center     Atomic      Atomic             Coordinates (Angstroms)
 Number     Number       Type             X           Y           Z
 ---------------------------------------------------------------------
      1          6           0        2.768831    0.325030    0.000003
      2          8           0        1.761444   -0.672112    0.000018
      3          6           0        0.454719   -0.271022   -0.000041
      4          6           0       -0.495240   -1.303610   -0.000005
      5          6           0       -1.851825   -1.000545    0.000019
      6          6           0       -2.283479    0.330784   -0.000012
      7          6           0       -1.336322    1.351675    0.000008
      8          6           0        0.032710    1.063522   -0.000003
      9          1           0        3.720511   -0.209873   -0.000056
     10          1           0        2.711098    0.959810    0.894504
     11          1           0        2.711001    0.959813   -0.894492
     12          1           0       -0.142521   -2.330408    0.000007
     13          1           0       -2.578488   -1.808906    0.000029
     14          1           0       -3.344131    0.564526   -0.000021
     15          1           0       -1.655754    2.390775    0.000021
     16          1           0        0.750366    1.876158    0.000042
 ---------------------------------------------------------------------

 SCF Done:  E(RB3LYP) =  -346.771320949     A.U. after    1 cycles

 Excitation energies and oscillator strengths:

 Excited State   1:      Singlet-A      5.1931 eV  238.75 nm  f=0.0275  <S**2>=0.000
      28 -> 31         0.31552
      29 -> 30         0.62309
 This state for optimization and/or second-order correction.
 Total Energy, E(TD-HF/TD-KS) =  -346.580477301
 Copying the excited state density for this state as the 1-particle RhoCI density.

 Excited State   2:      Singlet-A      5.9844 eV  207.18 nm  f=0.0894  <S**2>=0.000
      28 -> 30        -0.34225
      29 -> 30        -0.11290
      29 -> 31         0.60377

 Excited State   3:      Singlet-A      6.9960 eV  177.22 nm  f=0.2559  <S**2>=0.000
      27 -> 30        -0.26258
      28 -> 30        -0.11778
      28 -> 31         0.56185
      29 -> 30        -0.28407
      29 -> 31        -0.12041

 Excited State   4:      Singlet-A      7.0432 eV  176.03 nm  f=0.6155  <S**2>=0.000
      27 -> 31         0.11847
      28 -> 30         0.59025
      28 -> 31         0.14372
      29 -> 31         0.31901

 Excited State   5:      Singlet-A      7.3102 eV  169.60 nm  f=0.0004  <S**2>=0.000
      29 -> 32         0.69691
      29 -> 33        -0.10134

 Excited State   6:      Singlet-A      7.6759 eV  161.52 nm  f=0.0009  <S**2>=0.000
      25 -> 30        -0.11484
      26 -> 30         0.69132

 Excited State   7:      Singlet-A      7.8780 eV  157.38 nm  f=0.0113  <S**2>=0.000
      26 -> 31        -0.10677
      29 -> 32         0.10237
      29 -> 33         0.67995

 Excited State   8:      Singlet-A      7.9534 eV  155.89 nm  f=0.0003  <S**2>=0.000
      26 -> 31         0.68566
      29 -> 33         0.10983

 Excited State   9:      Singlet-A      8.1079 eV  152.92 nm  f=0.0001  <S**2>=0.000
      28 -> 32         0.68558
      28 -> 33        -0.13019

 Excited State  10:      Singlet-A      8.1143 eV  152.80 nm  f=0.2249  <S**2>=0.000
      27 -> 30         0.64433
      28 -> 31         0.24402
      29 -> 30        -0.12546

 The electronic state is 1-A.
 Alpha  occ. eigenvalues --  -19.17468 -10.24326 -10.23953 -10.18755 -10.18625
 Alpha  occ. eigenvalues --  -10.18414 -10.18001 -10.17896  -1.06042  -0.84362
 Alpha  occ. eigenvalues --   -0.75153  -0.73982  -0.69124  -0.60418  -0.58554
 Alpha  occ. eigenvalues --   -0.53165  -0.48104  -0.47293  -0.46591  -0.44240
 Alpha  occ. eigenvalues --   -0.41855  -0.40879  -0.37242  -0.36236  -0.35276
 Alpha  occ. eigenvalues --   -0.32221  -0.31490  -0.24605  -0.21515
 Alpha virt. eigenvalues --    0.00401   0.01801   0.09142   0.10823   0.13258
 Alpha virt. eigenvalues --    0.14876   0.15680   0.16643   0.16894   0.17368
 Alpha virt. eigenvalues --    0.19112   0.20209   0.25703   0.30467   0.30852

 Mulliken atomic charges:
              1
     1  C   -0.227797
     2  O   -0.442249
     3  C    0.349273
     4  C   -0.186593
     5  C   -0.162334
     6  C   -0.107002
     7  C   -0.167671
     8  C   -0.196577
     9  H    0.178412
    10  H    0.172986
    11  H    0.172983
    12  H    0.125809
    13  H    0.119135
    14  H    0.131985
    15  H    0.119222
    16  H    0.120419
 Sum of Mulliken atomic charges =  -0.00000

 Dipole moment (field-independent basis, Debye):
    X=              2.0954    Y=              1.1269    Z=             -0.0000  Tot=              2.3792
 Quadrupole moment (field-independent basis, Debye-Ang):
   XX=            -37.8979   YY=            -45.6947   ZZ=            -50.0969
   XY=              2.3993   XZ=             -0.0000   YZ=              0.0001

 Summary of Natural Population Analysis:

                                       Natural Population
                Natural  -----------------------------------------------
    Atom  No    Charge         Core      Valence    Rydberg      Total
 -----------------------------------------------------------------------
      C    1   -0.32607      1.99942     4.31254    0.01412     6.32607
      O    2   -0.42182      1.99975     6.41038    0.01169     8.42182
      C    3    0.32372      1.99880     3.65423    0.02325     5.67628
      C    4   -0.31264      1.99907     4.29313    0.02044     6.31264
      C    5   -0.29174      1.99915     4.27348    0.01911     6.29174
      C    6   -0.16150      1.99912     4.14653    0.01586     6.16150
      C    7   -0.29028      1.99915     4.27117    0.01995     6.29028
      C    8   -0.33368      1.99905     4.31737    0.01726     6.33368
      H    9    0.23190      0.00000     0.76756    0.00054     0.76810
      H   10    0.21801      0.00000     0.77994    0.00204     0.78199
      H   11    0.21801      0.00000     0.77994    0.00204     0.78199
      H   12    0.23534      0.00000     0.76341    0.00125     0.76466
      H   13    0.22853      0.00000     0.77064    0.00083     0.77147
      H   14    0.22933      0.00000     0.76981    0.00086     0.77067
      H   15    0.22765      0.00000     0.77148    0.00087     0.77235
      H   16    0.22524      0.00000     0.77376    0.00100     0.77476
 =======================================================================
   * Total *   -0.00000     15.99351    41.85538    0.15111    58.00000

 Normal termination of Gaussian 09 at Tue Sep 28 16:51:14 2021.
