 Gaussian 09, Revision A.02,

 -----------------------------------
 #p opt b3lyp/6-31G* scf=(xqc,tight)
 -----------------------------------

 --------------------
 COc1ccc(cc1)O_conf_0
 --------------------
 Symbolic Z-matrix:
 Charge =  0 Multiplicity = 1

 SCF Done:  E(RB3LYP) =  -421.983707072     A.U. after   14 cycles
 SCF Done:  E(RB3LYP) =  -421.984752492     A.U. after   12 cycles
 SCF Done:  E(RB3LYP) =  -421.984796230     A.U. after    9 cycles
 SCF Done:  E(RB3LYP) =  -421.984801294     A.U. after    8 cycles
 SCF Done:  E(RB3LYP) =  -421.984803727     A.U. after    8 cycles
 SCF Done:  E(RB3LYP) =  -421.984805437     A.U. after    8 cycles
 SCF Done:  E(RB3LYP) =  -421.984805938     A.U. after    8 cycles
 Optimization completed.
    -- Stationary point found.
 Normal termination of Gaussian 09 at Thu Sep 30 10:40:50 2021.

 ----------------------------------------------------------------------
 #p freq b3lyp/6-31G* volume NMR pop=NPA density=current Geom=AllCheck
 Guess=Read
 ----------------------------------------------------------------------

 COc1ccc(cc1)O_conf_0
 --------------------
 Redundant internal coordinates taken from checkpoint file:
 C7H8O2_088a_conf_0.chk
 Charge =  0 Multiplicity = 1

 SCF Done:  E(RB3LYP) =  -421.984805938     A.U. after    1 cycles

  1  C    Isotropic =   137.4860   Anisotropy =    64.9466

  2  O    Isotropic =   246.7690   Anisotropy =    67.2445

  3  C    Isotropic =    45.4391   Anisotropy =   119.6858

  4  C    Isotropic =    78.2456   Anisotropy =   133.8752

  5  C    Isotropic =    81.7841   Anisotropy =   118.6557

  6  C    Isotropic =    47.9841   Anisotropy =   124.6640

  7  C    Isotropic =    81.1718   Anisotropy =   135.1410

  8  C    Isotropic =    85.2303   Anisotropy =   144.9973

  9  O    Isotropic =   223.3324   Anisotropy =    54.1487

 10  H    Isotropic =    28.3697   Anisotropy =     7.9975

 11  H    Isotropic =    28.7096   Anisotropy =     8.0048

 12  H    Isotropic =    28.7101   Anisotropy =     8.0042

 13  H    Isotropic =    25.6739   Anisotropy =     5.5526

 14  H    Isotropic =    26.0885   Anisotropy =     4.6584

 15  H    Isotropic =    25.6133   Anisotropy =     5.1145

 16  H    Isotropic =    25.8536   Anisotropy =     6.8969

 17  H    Isotropic =    29.1031   Anisotropy =    12.7914

  Exact polarizability: 112.244  -3.196  83.027  -0.001   0.001  34.870
 Approx polarizability: 167.425   1.467 142.604  -0.003   0.002  50.997

                     1                      2                      3
                     A                      A                      A
 Frequencies --    73.5157               157.3842               232.8497
 Red. masses --     3.1653                 4.4487                 3.4165
 Frc consts  --     0.0101                 0.0649                 0.1091
 IR Inten    --     5.0228                 1.3597                 4.8904

                     4                      5                      6
                     A                      A                      A
 Frequencies --   250.2316               310.3109               378.3303
 Red. masses --     1.1487                 1.1058                 5.9342
 Frc consts  --     0.0424                 0.0627                 0.5004
 IR Inten    --     0.0149               121.5881                 0.5626

                     7                      8                      9
                     A                      A                      A
 Frequencies --   383.0793               428.5999               433.8375
 Red. masses --     4.2500                 3.2301                 5.8159
 Frc consts  --     0.3675                 0.3496                 0.6449
 IR Inten    --     1.9199                 0.8999                 3.9470

                    10                     11                     12
                     A                      A                      A
 Frequencies --   528.0008               533.3489               655.8438
 Red. masses --     2.2656                 4.2444                 6.8497
 Frc consts  --     0.3721                 0.7114                 1.7359
 IR Inten    --     7.7513                 4.4152                 0.7714

                    13                     14                     15
                     A                      A                      A
 Frequencies --   706.4061               743.0345               806.0237
 Red. masses --     4.3714                 5.3440                 1.2640
 Frc consts  --     1.2852                 1.7383                 0.4838
 IR Inten    --     0.0152                47.6209                 2.5820

                    16                     17                     18
                     A                      A                      A
 Frequencies --   832.4755               859.8296               922.4243
 Red. masses --     1.7002                 6.2737                 1.2830
 Frc consts  --     0.6942                 2.7328                 0.6432
 IR Inten    --    58.7905                 2.6567                 0.5784

                    19                     20                     21
                     A                      A                      A
 Frequencies --   929.5838              1026.7273              1083.6382
 Red. masses --     1.2983                 2.6245                 5.9965
 Frc consts  --     0.6610                 1.6301                 4.1487
 IR Inten    --     0.3471                 0.0242                60.0979

                    22                     23                     24
                     A                      A                      A
 Frequencies --  1133.5764              1184.9380              1197.0439
 Red. masses --     1.3153                 1.2712                 1.1289
 Frc consts  --     0.9958                 1.0516                 0.9531
 IR Inten    --    13.4591                 0.8027                 3.9750

                    25                     26                     27
                     A                      A                      A
 Frequencies --  1209.5453              1219.3293              1285.3218
 Red. masses --     1.4011                 1.3821                 2.6465
 Frc consts  --     1.2077                 1.2107                 2.5760
 IR Inten    --   126.6036                68.1167               286.1320

                    28                     29                     30
                     A                      A                      A
 Frequencies --  1309.9339              1343.8855              1388.3280
 Red. masses --     8.6137                 1.7789                 2.5428
 Frc consts  --     8.7084                 1.8929                 2.8877
 IR Inten    --     1.6809                 5.9835                70.8842

                    31                     32                     33
                     A                      A                      A
 Frequencies --  1486.7917              1500.6459              1518.9313
 Red. masses --     2.4572                 1.2901                 1.0486
 Frc consts  --     3.2003                 1.7117                 1.4253
 IR Inten    --    47.9511                 5.6249                 4.9947

                    34                     35                     36
                     A                      A                      A
 Frequencies --  1535.0646              1567.1181              1652.1047
 Red. masses --     1.0694                 2.5125                 6.0936
 Frc consts  --     1.4847                 3.6355                 9.7994
 IR Inten    --    54.6774               204.9327                 0.0693

                    37                     38                     39
                     A                      A                      A
 Frequencies --  1686.1627              3017.5115              3073.1010
 Red. masses --     6.0745                 1.0353                 1.1064
 Frc consts  --    10.1756                 5.5542                 6.1565
 IR Inten    --     0.3829                57.8327                49.8495

                    40                     41                     42
                     A                      A                      A
 Frequencies --  3152.5514              3168.3109              3209.9020
 Red. masses --     1.0988                 1.0893                 1.0884
 Frc consts  --     6.4344                 6.4422                 6.6072
 IR Inten    --    28.5107                22.1482                10.0617

                    43                     44                     45
                     A                      A                      A
 Frequencies --  3215.7950              3228.6492              3756.7515
 Red. masses --     1.0924                 1.0926                 1.0660
 Frc consts  --     6.6559                 6.7107                 8.8641
 IR Inten    --     5.0512                 8.6946                40.8842

 - Thermochemistry -
 -------------------
 Temperature   298.150 Kelvin.  Pressure   1.00000 Atm.
 Atom     1 has atomic number  6 and mass  12.00000

 Molecular mass:   124.05243 amu.
 Principal axes and moments of inertia in atomic units:
                           1         2         3
     Eigenvalues --   369.643831832.230052190.35858
           X            0.99968  -0.02533   0.00001
           Y            0.02533   0.99968   0.00000
           Z           -0.00001  -0.00000   1.00000
 This molecule is an asymmetric top.
 Rotational symmetry number  1.
 Rotational temperatures (Kelvin)      0.23432     0.04727     0.03954
 Rotational constants (GHZ):           4.88238     0.98500     0.82395
 Zero-point vibrational energy     360774.4 (Joules/Mol)
                                   86.22715 (Kcal/Mol)
 Warning -- explicit consideration of  11 degrees of freedom as
           vibrations may cause significant error
 Vibrational temperatures:    105.77   226.44   335.02   360.03   446.47
          (Kelvin)            544.33   551.16   616.66   624.19   759.67
                              767.37   943.61  1016.36  1069.06  1159.69
                             1197.75  1237.10  1327.16  1337.46  1477.23
                             1559.11  1630.96  1704.86  1722.28  1740.26
                             1754.34  1849.29  1884.70  1933.55  1997.49
                             2139.16  2159.09  2185.40  2208.61  2254.73
                             2377.01  2426.01  4341.52  4421.50  4535.81
                             4558.49  4618.33  4626.81  4645.30  5405.12

 Zero-point correction=                           0.137412 (Hartree/Particle)
 Thermal correction to Energy=                    0.145549
 Thermal correction to Enthalpy=                  0.146493
 Thermal correction to Gibbs Free Energy=         0.104712
 Sum of electronic and zero-point Energies=           -421.847394
 Sum of electronic and thermal Energies=              -421.839257
 Sum of electronic and thermal Enthalpies=            -421.838313
 Sum of electronic and thermal Free Energies=         -421.880094

                     E (Thermal)             CV                S
                      KCal/Mol        Cal/Mol-Kelvin    Cal/Mol-Kelvin
 Total                   91.333             31.108             87.936
 Electronic               0.000              0.000              0.000
 Translational            0.889              2.981             40.361
 Rotational               0.889              2.981             28.785
 Vibrational             89.556             25.146             18.790
 Vibration     1          0.599              1.966              4.057
 Vibration     2          0.621              1.894              2.581
 Vibration     3          0.654              1.791              1.857
 Vibration     4          0.663              1.762              1.729
 Vibration     5          0.699              1.654              1.361
 Vibration     6          0.749              1.516              1.046
 Vibration     7          0.752              1.506              1.027
 Vibration     8          0.790              1.408              0.863
 Vibration     9          0.795              1.396              0.846
 Vibration    10          0.883              1.188              0.592
 Vibration    11          0.888              1.176              0.580

 Optimization completed.
    -- Stationary point found.
 Normal termination of Gaussian 09 at Thu Sep 30 11:09:50 2021.
 Gaussian 09:  AM64L-G09RevA.02 11-Jun-2009

 ----------------------------------------------------------------------
 #p TD(NStates=10, Root=1) b3lyp/6-31G* volume pop=NPA density=current
 Geom=AllCheck Guess=Read
 ----------------------------------------------------------------------

 COc1ccc(cc1)O_conf_0
 --------------------
 Redundant internal coordinates taken from checkpoint file:
 C7H8O2_088a_conf_0.chk
 Charge =  0 Multiplicity = 1

                         Standard orientation:
 ---------------------------------------------------------------------
 Center     Atomic      Atomic             Coordinates (Angstroms)
 Number     Number       Type             X           Y           Z
 ---------------------------------------------------------------------
      1          6           0        3.194249   -0.475914    0.000199
      2          8           0        2.264760    0.591962   -0.000163
      3          6           0        0.929238    0.282084   -0.000089
      4          6           0        0.050255    1.372124   -0.000012
      5          6           0       -1.325722    1.168412    0.000040
      6          6           0       -1.847088   -0.131005    0.000014
      7          6           0       -0.974112   -1.218333   -0.000068
      8          6           0        0.407933   -1.016946   -0.000120
      9          8           0       -3.195076   -0.392345    0.000114
     10          1           0        4.183769   -0.014310    0.000361
     11          1           0        3.090622   -1.106053   -0.894100
     12          1           0        3.090191   -1.105788    0.894635
     13          1           0        0.464746    2.375371    0.000007
     14          1           0       -1.997321    2.025471    0.000123
     15          1           0       -1.385351   -2.222935   -0.000098
     16          1           0        1.062764   -1.880836   -0.000202
     17          1           0       -3.675404    0.449609   -0.000127
 ---------------------------------------------------------------------

 SCF Done:  E(RB3LYP) =  -421.984805938     A.U. after    1 cycles

 Excitation energies and oscillator strengths:

 Excited State   1:      Singlet-A      4.7728 eV  259.77 nm  f=0.0578  <S**2>=0.000
      32 -> 35        -0.22492
      33 -> 34         0.66983
 This state for optimization and/or second-order correction.
 Total Energy, E(TD-HF/TD-KS) =  -421.809407597
 Copying the excited state density for this state as the 1-particle RhoCI density.

 Excited State   2:      Singlet-A      5.8849 eV  210.68 nm  f=0.1454  <S**2>=0.000
      32 -> 34         0.30843
      33 -> 35         0.63139

 Excited State   3:      Singlet-A      6.2663 eV  197.86 nm  f=0.0000  <S**2>=0.000
      33 -> 36         0.70110

 Excited State   4:      Singlet-A      6.8914 eV  179.91 nm  f=0.0008  <S**2>=0.000
      33 -> 37         0.69342
      33 -> 38        -0.12728

 Excited State   5:      Singlet-A      6.9964 eV  177.21 nm  f=0.6664  <S**2>=0.000
      32 -> 34         0.62593
      33 -> 35        -0.30203

 Excited State   6:      Singlet-A      7.1064 eV  174.47 nm  f=0.0324  <S**2>=0.000
      31 -> 34         0.63521
      32 -> 35         0.27843

 Excited State   7:      Singlet-A      7.3348 eV  169.04 nm  f=0.2422  <S**2>=0.000
      28 -> 34        -0.13917
      31 -> 34        -0.29716
      32 -> 35         0.58718
      33 -> 34         0.19552

 Excited State   8:      Singlet-A      7.5021 eV  165.27 nm  f=0.0096  <S**2>=0.000
      33 -> 37         0.12777
      33 -> 38         0.68899

 Excited State   9:      Singlet-A      7.5959 eV  163.22 nm  f=0.0005  <S**2>=0.000
      29 -> 34        -0.13003
      30 -> 34         0.68927

 Excited State  10:      Singlet-A      7.8132 eV  158.69 nm  f=0.0001  <S**2>=0.000
      32 -> 36         0.69972

 The electronic state is 1-A.
 Alpha  occ. eigenvalues --  -19.17152 -19.17072 -10.24011 -10.23799 -10.23736
 Alpha  occ. eigenvalues --  -10.18909 -10.18698 -10.18487 -10.18320  -1.05617
 Alpha  occ. eigenvalues --   -1.05045  -0.84334  -0.75084  -0.74059  -0.68948
 Alpha  occ. eigenvalues --   -0.61802  -0.59264  -0.54147  -0.52326  -0.48131
 Alpha  occ. eigenvalues --   -0.46320  -0.44962  -0.42591  -0.42215  -0.40522
 Alpha  occ. eigenvalues --   -0.39930  -0.37276  -0.35483  -0.34900  -0.32210
 Alpha  occ. eigenvalues --   -0.29138  -0.24940  -0.19639
 Alpha virt. eigenvalues --    0.00020   0.03027   0.07089   0.09395   0.11117
 Alpha virt. eigenvalues --    0.13552   0.15371   0.15755   0.16885   0.17682
 Alpha virt. eigenvalues --    0.17815   0.20636   0.24444   0.25500   0.31751

 Mulliken atomic charges:
              1
     1  C   -0.224282
     2  O   -0.454956
     3  C    0.364311
     4  C   -0.206904
     5  C   -0.219413
     6  C    0.343561
     7  C   -0.193160
     8  C   -0.216572
     9  O   -0.595096
    10  H    0.174781
    11  H    0.169648
    12  H    0.169651
    13  H    0.122924
    14  H    0.103172
    15  H    0.125196
    16  H    0.117009
    17  H    0.420128
 Sum of Mulliken atomic charges =  -0.00000

 Dipole moment (field-independent basis, Debye):
    X=              0.8398    Y=              0.0175    Z=              0.0000  Tot=              0.8400
 Quadrupole moment (field-independent basis, Debye-Ang):
   XX=            -37.7592   YY=            -50.9559   ZZ=            -55.4076
   XY=             -8.7453   XZ=              0.0026   YZ=              0.0003

 Summary of Natural Population Analysis:

                                       Natural Population
                Natural  -----------------------------------------------
    Atom  No    Charge         Core      Valence    Rydberg      Total
 -----------------------------------------------------------------------
      C    1   -0.32386      1.99942     4.31028    0.01415     6.32386
      O    2   -0.43621      1.99975     6.42485    0.01160     8.43621
      C    3    0.34163      1.99876     3.63677    0.02284     5.65837
      C    4   -0.33279      1.99907     4.31243    0.02129     6.33279
      C    5   -0.37074      1.99904     4.35271    0.01899     6.37074
      C    6    0.35673      1.99874     3.62263    0.02190     5.64327
      C    7   -0.33768      1.99905     4.31783    0.02079     6.33768
      C    8   -0.36149      1.99905     4.34507    0.01737     6.36149
      O    9   -0.61444      1.99979     6.60349    0.01116     8.61444
      H   10    0.22987      0.00000     0.76958    0.00055     0.77013
      H   11    0.21585      0.00000     0.78211    0.00204     0.78415
      H   12    0.21585      0.00000     0.78210    0.00204     0.78415
      H   13    0.23781      0.00000     0.76096    0.00123     0.76219
      H   14    0.22006      0.00000     0.77882    0.00112     0.77994
      H   15    0.23814      0.00000     0.76066    0.00120     0.76186
      H   16    0.22829      0.00000     0.77077    0.00094     0.77171
      H   17    0.49298      0.00000     0.50546    0.00156     0.50702
 =======================================================================
   * Total *   -0.00000     17.99267    47.83654    0.17079    66.00000

 Normal termination of Gaussian 09 at Thu Sep 30 12:30:52 2021.
