 Gaussian 09, Revision A.02,

 -----------------------------------
 #p opt b3lyp/6-31G* scf=(xqc,tight)
 -----------------------------------

 --------------------
 COc1cccc(c1)O_conf_0
 --------------------
 Symbolic Z-matrix:
 Charge =  0 Multiplicity = 1

 SCF Done:  E(RB3LYP) =  -421.983675602     A.U. after   14 cycles
 SCF Done:  E(RB3LYP) =  -421.984764778     A.U. after   12 cycles
 SCF Done:  E(RB3LYP) =  -421.984829879     A.U. after   11 cycles
 SCF Done:  E(RB3LYP) =  -421.984843232     A.U. after    9 cycles
 SCF Done:  E(RB3LYP) =  -421.984851145     A.U. after   10 cycles
 SCF Done:  E(RB3LYP) =  -421.984854787     A.U. after    8 cycles
 SCF Done:  E(RB3LYP) =  -421.984856058     A.U. after    8 cycles
 Optimization completed.
    -- Stationary point found.
 Normal termination of Gaussian 09 at Thu Sep 30 10:46:53 2021.

 ----------------------------------------------------------------------
 #p freq b3lyp/6-31G* volume NMR pop=NPA density=current Geom=AllCheck
 Guess=Read
 ----------------------------------------------------------------------

 COc1cccc(c1)O_conf_0
 --------------------
 Redundant internal coordinates taken from checkpoint file:
 C7H8O2_85bd_conf_0.chk
 Charge =  0 Multiplicity = 1

 SCF Done:  E(RB3LYP) =  -421.984856058     A.U. after    1 cycles

  1  C    Isotropic =   137.5467   Anisotropy =    64.8312

  2  O    Isotropic =   246.1138   Anisotropy =    69.0761

  3  C    Isotropic =    45.3418   Anisotropy =   119.6977

  4  C    Isotropic =    76.7120   Anisotropy =   137.0456

  5  C    Isotropic =    79.6769   Anisotropy =   136.8163

  6  C    Isotropic =    47.8063   Anisotropy =   124.7905

  7  C    Isotropic =    83.4874   Anisotropy =   116.7408

  8  C    Isotropic =    86.8019   Anisotropy =   141.3332

  9  O    Isotropic =   223.2602   Anisotropy =    53.9792

 10  H    Isotropic =    28.3614   Anisotropy =     7.9833

 11  H    Isotropic =    28.7400   Anisotropy =     7.9400

 12  H    Isotropic =    28.7407   Anisotropy =     7.9395

 13  H    Isotropic =    25.5306   Anisotropy =     5.5141

 14  H    Isotropic =    25.5477   Anisotropy =     4.7975

 15  H    Isotropic =    26.1667   Anisotropy =     4.9979

 16  H    Isotropic =    26.0330   Anisotropy =     6.9420

 17  H    Isotropic =    29.0930   Anisotropy =    12.5886

  Exact polarizability: 111.262  -0.063  83.755   0.001   0.004  34.886
 Approx polarizability: 166.977   2.663 142.758  -0.003   0.006  51.026

                     1                      2                      3
                     A                      A                      A
 Frequencies --    75.0696               158.7957               232.7313
 Red. masses --     3.2900                 4.2883                 3.3477
 Frc consts  --     0.0109                 0.0637                 0.1068
 IR Inten    --     2.2839                 0.8242                 0.5613

                     4                      5                      6
                     A                      A                      A
 Frequencies --   251.0488               324.4262               378.3318
 Red. masses --     1.1562                 1.0932                 6.0189
 Frc consts  --     0.0429                 0.0678                 0.5076
 IR Inten    --     0.2061               122.5771                 0.2916

                     7                      8                      9
                     A                      A                      A
 Frequencies --   381.6287               429.2038               436.3705
 Red. masses --     4.9840                 3.2721                 4.7051
 Frc consts  --     0.4277                 0.3551                 0.5279
 IR Inten    --    10.5961                 0.6284                 5.2623

                    10                     11                     12
                     A                      A                      A
 Frequencies --   528.8999               532.2218               655.6943
 Red. masses --     2.2665                 4.4662                 6.9016
 Frc consts  --     0.3736                 0.7454                 1.7483
 IR Inten    --     7.1873                 0.4176                 0.5568

                    13                     14                     15
                     A                      A                      A
 Frequencies --   706.8953               744.5703               797.5168
 Red. masses --     4.3602                 5.2440                 1.3317
 Frc consts  --     1.2837                 1.7129                 0.4990
 IR Inten    --     0.0399                40.4831                17.4630

                    16                     17                     18
                     A                      A                      A
 Frequencies --   842.4300               860.1278               896.8177
 Red. masses --     1.5997                 6.2302                 1.2998
 Frc consts  --     0.6689                 2.7157                 0.6159
 IR Inten    --    45.1520                 2.0889                 0.4266

                    19                     20                     21
                     A                      A                      A
 Frequencies --   950.4883              1026.8211              1083.1539
 Red. masses --     1.2789                 2.6233                 5.9575
 Frc consts  --     0.6807                 1.6296                 4.1181
 IR Inten    --     0.0301                 0.0291                67.7081

                    22                     23                     24
                     A                      A                      A
 Frequencies --  1131.7410              1185.2961              1199.6559
 Red. masses --     1.2966                 1.2718                 1.1657
 Frc consts  --     0.9785                 1.0527                 0.9884
 IR Inten    --    21.1769                 0.8178                 6.9669

                    25                     26                     27
                     A                      A                      A
 Frequencies --  1207.1935              1218.5124              1281.7874
 Red. masses --     1.3941                 1.3932                 3.1027
 Frc consts  --     1.1971                 1.2188                 3.0035
 IR Inten    --   141.1713                 3.6497               323.3218

                    28                     29                     30
                     A                      A                      A
 Frequencies --  1311.0282              1346.0024              1387.4596
 Red. masses --     4.4114                 1.6858                 3.1117
 Frc consts  --     4.4673                 1.7994                 3.5293
 IR Inten    --     3.7662                40.4522                20.2406

                    31                     32                     33
                     A                      A                      A
 Frequencies --  1490.3328              1498.4726              1518.6754
 Red. masses --     2.8739                 1.1925                 1.0486
 Frc consts  --     3.7609                 1.5776                 1.4249
 IR Inten    --    40.7329                15.5109                 5.0551

                    34                     35                     36
                     A                      A                      A
 Frequencies --  1535.4623              1567.3020              1653.9950
 Red. masses --     1.0692                 2.5127                 6.2786
 Frc consts  --     1.4852                 3.6366                10.1201
 IR Inten    --    37.4209               210.7607                15.0287

                    37                     38                     39
                     A                      A                      A
 Frequencies --  1683.2611              3016.5197              3071.7673
 Red. masses --     6.0505                 1.0354                 1.1064
 Frc consts  --    10.1005                 5.5509                 6.1508
 IR Inten    --     0.8648                56.9198                50.6881

                    40                     41                     42
                     A                      A                      A
 Frequencies --  3152.7443              3167.6377              3207.2012
 Red. masses --     1.0987                 1.0896                 1.0876
 Frc consts  --     6.4344                 6.4414                 6.5911
 IR Inten    --    29.3180                22.1112                 6.3497

                    43                     44                     45
                     A                      A                      A
 Frequencies --  3221.6970              3226.8136              3754.3545
 Red. masses --     1.0950                 1.0907                 1.0660
 Frc consts  --     6.6960                 6.6914                 8.8525
 IR Inten    --     8.0574                 8.3990                37.7864

 - Thermochemistry -
 -------------------
 Temperature   298.150 Kelvin.  Pressure   1.00000 Atm.
 Atom     1 has atomic number  6 and mass  12.00000

 Molecular mass:   124.05243 amu.
 Principal axes and moments of inertia in atomic units:
                           1         2         3
     Eigenvalues --   369.145681832.837292190.46596
           X            0.99992  -0.01225   0.00001
           Y            0.01225   0.99992   0.00001
           Z           -0.00001  -0.00001   1.00000
 This molecule is an asymmetric top.
 Rotational symmetry number  1.
 Rotational temperatures (Kelvin)      0.23463     0.04726     0.03954
 Rotational constants (GHZ):           4.88897     0.98467     0.82391
 Zero-point vibrational energy     360842.5 (Joules/Mol)
                                   86.24343 (Kcal/Mol)
 Warning -- explicit consideration of  11 degrees of freedom as
           vibrations may cause significant error
 Vibrational temperatures:    108.01   228.47   334.85   361.20   466.78
          (Kelvin)            544.33   549.08   617.53   627.84   760.97
                              765.75   943.40  1017.06  1071.27  1147.45
                             1212.07  1237.53  1290.32  1367.54  1477.36
                             1558.41  1628.32  1705.37  1726.04  1736.88
                             1753.17  1844.20  1886.27  1936.59  1996.24
                             2144.25  2155.97  2185.03  2209.19  2255.00
                             2379.73  2421.83  4340.09  4419.58  4536.09
                             4557.52  4614.44  4635.30  4642.66  5401.67

 Zero-point correction=                           0.137438 (Hartree/Particle)
 Thermal correction to Energy=                    0.145551
 Thermal correction to Enthalpy=                  0.146495
 Thermal correction to Gibbs Free Energy=         0.104780
 Sum of electronic and zero-point Energies=           -421.847418
 Sum of electronic and thermal Energies=              -421.839305
 Sum of electronic and thermal Enthalpies=            -421.838361
 Sum of electronic and thermal Free Energies=         -421.880076

                     E (Thermal)             CV                S
                      KCal/Mol        Cal/Mol-Kelvin    Cal/Mol-Kelvin
 Total                   91.335             31.078             87.798
 Electronic               0.000              0.000              0.000
 Translational            0.889              2.981             40.361
 Rotational               0.889              2.981             28.785
 Vibrational             89.557             25.117             18.653
 Vibration     1          0.599              1.966              4.016
 Vibration     2          0.621              1.893              2.564
 Vibration     3          0.653              1.791              1.858
 Vibration     4          0.663              1.761              1.723
 Vibration     5          0.709              1.627              1.288
 Vibration     6          0.749              1.516              1.046
 Vibration     7          0.751              1.509              1.033
 Vibration     8          0.791              1.407              0.861
 Vibration     9          0.797              1.391              0.838
 Vibration    10          0.884              1.186              0.590
 Vibration    11          0.887              1.179              0.582

 Optimization completed.
    -- Stationary point found.
 Normal termination of Gaussian 09 at Thu Sep 30 11:15:00 2021.
 Gaussian 09:  AM64L-G09RevA.02 11-Jun-2009

 ----------------------------------------------------------------------
 #p TD(NStates=10, Root=1) b3lyp/6-31G* volume pop=NPA density=current
 Geom=AllCheck Guess=Read
 ----------------------------------------------------------------------

 COc1cccc(c1)O_conf_0
 --------------------
 Redundant internal coordinates taken from checkpoint file:
 C7H8O2_85bd_conf_0.chk
 Charge =  0 Multiplicity = 1

                         Standard orientation:
 ---------------------------------------------------------------------
 Center     Atomic      Atomic             Coordinates (Angstroms)
 Number     Number       Type             X           Y           Z
 ---------------------------------------------------------------------
      1          6           0        3.188098   -0.499587    0.000267
      2          8           0        2.268926    0.576797   -0.000254
      3          6           0        0.931021    0.278183   -0.000074
      4          6           0        0.060817    1.379537   -0.000008
      5          6           0       -1.314073    1.195056    0.000016
      6          6           0       -1.849613   -0.100107    0.000019
      7          6           0       -0.989664   -1.196119   -0.000062
      8          6           0        0.398964   -1.012898   -0.000151
      9          8           0       -3.217418   -0.217856    0.000229
     10          1           0        4.182180   -0.047932    0.000486
     11          1           0        3.078116   -1.128781   -0.894048
     12          1           0        3.077501   -1.128339    0.894819
     13          1           0        0.489008    2.377122   -0.000025
     14          1           0       -1.991206    2.043468    0.000043
     15          1           0       -1.393686   -2.207129   -0.000052
     16          1           0        1.042359   -1.885240   -0.000301
     17          1           0       -3.449640   -1.159088   -0.000762
 ---------------------------------------------------------------------

 SCF Done:  E(RB3LYP) =  -421.984856058     A.U. after    1 cycles

 Excitation energies and oscillator strengths:

 Excited State   1:      Singlet-A      4.7862 eV  259.04 nm  f=0.0565  <S**2>=0.000
      32 -> 35        -0.22621
      33 -> 34         0.67006
 This state for optimization and/or second-order correction.
 Total Energy, E(TD-HF/TD-KS) =  -421.808965546
 Copying the excited state density for this state as the 1-particle RhoCI density.

 Excited State   2:      Singlet-A      5.8906 eV  210.48 nm  f=0.1374  <S**2>=0.000
      32 -> 34         0.31313
      33 -> 35         0.62976

 Excited State   3:      Singlet-A      6.2601 eV  198.05 nm  f=0.0000  <S**2>=0.000
      33 -> 36         0.70124

 Excited State   4:      Singlet-A      6.8799 eV  180.21 nm  f=0.0009  <S**2>=0.000
      33 -> 37         0.69341
      33 -> 38        -0.12566

 Excited State   5:      Singlet-A      6.9904 eV  177.36 nm  f=0.6618  <S**2>=0.000
      31 -> 34        -0.10083
      32 -> 34         0.61544
      33 -> 35        -0.30760

 Excited State   6:      Singlet-A      7.1257 eV  174.00 nm  f=0.0539  <S**2>=0.000
      31 -> 34         0.60843
      32 -> 34         0.11114
      32 -> 35         0.31065

 Excited State   7:      Singlet-A      7.3273 eV  169.21 nm  f=0.2320  <S**2>=0.000
      28 -> 34        -0.13342
      31 -> 34        -0.33629
      32 -> 35         0.56952
      33 -> 34         0.19215

 Excited State   8:      Singlet-A      7.4827 eV  165.69 nm  f=0.0092  <S**2>=0.000
      33 -> 37         0.12479
      33 -> 38         0.68878

 Excited State   9:      Singlet-A      7.6296 eV  162.50 nm  f=0.0006  <S**2>=0.000
      29 -> 34        -0.14448
      30 -> 34         0.68506

 Excited State  10:      Singlet-A      7.8117 eV  158.72 nm  f=0.0001  <S**2>=0.000
      32 -> 36         0.69893

 The electronic state is 1-A.
 Alpha  occ. eigenvalues --  -19.17181 -19.17106 -10.24032 -10.23804 -10.23783
 Alpha  occ. eigenvalues --  -10.18900 -10.18819 -10.18360 -10.18298  -1.05659
 Alpha  occ. eigenvalues --   -1.05070  -0.84328  -0.74996  -0.74214  -0.68781
 Alpha  occ. eigenvalues --   -0.62331  -0.58898  -0.54167  -0.52138  -0.48453
 Alpha  occ. eigenvalues --   -0.46368  -0.44714  -0.43315  -0.42010  -0.39945
 Alpha  occ. eigenvalues --   -0.39688  -0.37912  -0.35497  -0.34651  -0.32318
 Alpha  occ. eigenvalues --   -0.29176  -0.24885  -0.19687
 Alpha virt. eigenvalues --    0.00048   0.03025   0.07069   0.09298   0.11052
 Alpha virt. eigenvalues --    0.13774   0.14927   0.15892   0.16802   0.17813
 Alpha virt. eigenvalues --    0.17891   0.20618   0.24512   0.25502   0.30811

 Mulliken atomic charges:
              1
     1  C   -0.224052
     2  O   -0.453649
     3  C    0.364169
     4  C   -0.208183
     5  C   -0.187442
     6  C    0.344155
     7  C   -0.224542
     8  C   -0.215005
     9  O   -0.593505
    10  H    0.175540
    11  H    0.168243
    12  H    0.168248
    13  H    0.122143
    14  H    0.124241
    15  H    0.103684
    16  H    0.117491
    17  H    0.418465
 Sum of Mulliken atomic charges =  -0.00000

 Dipole moment (field-independent basis, Debye):
    X=              1.2078    Y=             -2.8051    Z=             -0.0010  Tot=              3.0540
 Quadrupole moment (field-independent basis, Debye-Ang):
   XX=            -40.9821   YY=            -48.5945   ZZ=            -55.4132
   XY=              2.3087   XZ=              0.0077   YZ=              0.0024

 Summary of Natural Population Analysis:

                                       Natural Population
                Natural  -----------------------------------------------
    Atom  No    Charge         Core      Valence    Rydberg      Total
 -----------------------------------------------------------------------
      C    1   -0.32402      1.99942     4.31040    0.01419     6.32402
      O    2   -0.43582      1.99975     6.42442    0.01164     8.43582
      C    3    0.34248      1.99876     3.63590    0.02286     5.65752
      C    4   -0.33749      1.99907     4.31784    0.02058     6.33749
      C    5   -0.34339      1.99905     4.32439    0.01996     6.34339
      C    6    0.35712      1.99874     3.62223    0.02191     5.64288
      C    7   -0.36497      1.99904     4.34606    0.01987     6.36497
      C    8   -0.35673      1.99905     4.33968    0.01800     6.35673
      O    9   -0.61307      1.99979     6.60208    0.01120     8.61307
      H   10    0.23037      0.00000     0.76909    0.00055     0.76963
      H   11    0.21488      0.00000     0.78306    0.00206     0.78512
      H   12    0.21489      0.00000     0.78305    0.00206     0.78511
      H   13    0.23771      0.00000     0.76110    0.00119     0.76229
      H   14    0.23859      0.00000     0.76029    0.00112     0.76141
      H   15    0.21971      0.00000     0.77909    0.00119     0.78029
      H   16    0.22837      0.00000     0.77066    0.00097     0.77163
      H   17    0.49137      0.00000     0.50700    0.00163     0.50863
 =======================================================================
   * Total *    0.00000     17.99268    47.83635    0.17098    66.00000

 Normal termination of Gaussian 09 at Thu Sep 30 12:36:56 2021.
