 Gaussian 09, Revision A.02,

 -----------------------------------
 #p opt b3lyp/6-31G* scf=(xqc,tight)
 -----------------------------------

 ---------------------
 OB(c1ccccc1C)O_conf_0
 ---------------------
 Symbolic Z-matrix:
 Charge =  0 Multiplicity = 1

 SCF Done:  E(RB3LYP) =  -447.533200764     A.U. after   14 cycles
 SCF Done:  E(RB3LYP) =  -447.543642673     A.U. after   13 cycles
 SCF Done:  E(RB3LYP) =  -447.550101229     A.U. after   13 cycles
 SCF Done:  E(RB3LYP) =  -447.557467720     A.U. after   13 cycles
 SCF Done:  E(RB3LYP) =  -447.561500891     A.U. after   12 cycles
 SCF Done:  E(RB3LYP) =  -447.567330772     A.U. after   13 cycles
 SCF Done:  E(RB3LYP) =  -447.571521518     A.U. after   15 cycles
 SCF Done:  E(RB3LYP) =  -447.573061139     A.U. after   12 cycles
 SCF Done:  E(RB3LYP) =  -447.573221111     A.U. after   11 cycles
 SCF Done:  E(RB3LYP) =  -447.573230277     A.U. after   15 cycles
 SCF Done:  E(RB3LYP) =  -447.573235172     A.U. after   15 cycles
 SCF Done:  E(RB3LYP) =  -447.573235531     A.U. after    7 cycles
 SCF Done:  E(RB3LYP) =  -447.573235653     A.U. after   15 cycles
 SCF Done:  E(RB3LYP) =  -447.573235772     A.U. after    7 cycles
 Optimization completed.
    -- Stationary point found.
 Normal termination of Gaussian 09 at Sun Oct  3 15:42:27 2021.

 ----------------------------------------------------------------------
 #p freq b3lyp/6-31G* volume NMR pop=NPA density=current Geom=AllCheck
 Guess=Read
 ----------------------------------------------------------------------

 OB(c1ccccc1C)O_conf_0
 ---------------------
 Redundant internal coordinates taken from checkpoint file:
 C7H9BO2_6d96_conf_0.chk
 Charge =  0 Multiplicity = 1

 SCF Done:  E(RB3LYP) =  -447.573235772     A.U. after    1 cycles

  1  O    Isotropic =   217.2496   Anisotropy =    53.2529

  2  B    Isotropic =    84.8523   Anisotropy =    17.1045

  3  C    Isotropic =    67.2250   Anisotropy =   183.7140

  4  C    Isotropic =    58.1300   Anisotropy =   177.9676

  5  C    Isotropic =    71.8894   Anisotropy =   161.0235

  6  C    Isotropic =    65.5535   Anisotropy =   165.7178

  7  C    Isotropic =    66.1618   Anisotropy =   139.0377

  8  C    Isotropic =    49.3766   Anisotropy =   191.3490

  9  C    Isotropic =   163.9106   Anisotropy =    27.9812

 10  O    Isotropic =   222.4445   Anisotropy =    64.3240

 11  H    Isotropic =    29.2333   Anisotropy =    12.5591

 12  H    Isotropic =    24.0705   Anisotropy =     9.1410

 13  H    Isotropic =    25.1483   Anisotropy =     4.5157

 14  H    Isotropic =    25.0357   Anisotropy =     4.5750

 15  H    Isotropic =    25.2031   Anisotropy =     6.9011

 16  H    Isotropic =    30.4009   Anisotropy =     7.1038

 17  H    Isotropic =    29.3233   Anisotropy =     6.1043

 18  H    Isotropic =    29.3232   Anisotropy =     6.1081

 19  H    Isotropic =    29.5978   Anisotropy =    12.6847

  Exact polarizability: 119.322  -2.758 101.776  -0.002   0.006  39.364
 Approx polarizability: 178.633  -3.340 162.190  -0.005   0.009  59.656

                     1                      2                      3
                     A                      A                      A
 Frequencies --    31.8926               122.0869               169.4033
 Red. masses --     6.7570                 3.6764                 1.0745
 Frc consts  --     0.0040                 0.0323                 0.0182
 IR Inten    --     0.1121                 2.7426                 0.7446

                     4                      5                      6
                     A                      A                      A
 Frequencies --   198.4135               225.2231               323.9679
 Red. masses --     4.9068                 2.8370                 4.1255
 Frc consts  --     0.1138                 0.0848                 0.2551
 IR Inten    --     2.8074                 7.7143                 3.2590

                     7                      8                      9
                     A                      A                      A
 Frequencies --   342.3881               385.1972               420.7063
 Red. masses --     5.8007                 1.0813                 2.6055
 Frc consts  --     0.4007                 0.0945                 0.2717
 IR Inten    --     3.7929                 5.7115                17.1698

                    10                     11                     12
                     A                      A                      A
 Frequencies --   463.6857               490.9447               537.7014
 Red. masses --     3.8515                 2.6223                 4.4184
 Frc consts  --     0.4879                 0.3724                 0.7527
 IR Inten    --     4.7636                 3.2996                23.8667

                    13                     14                     15
                     A                      A                      A
 Frequencies --   551.6021               587.1036               651.8155
 Red. masses --     1.4043                 4.3262                 5.7943
 Frc consts  --     0.2517                 0.8786                 1.4504
 IR Inten    --   175.9263                26.1128                64.9559

                    16                     17                     18
                     A                      A                      A
 Frequencies --   705.8482               749.0813               782.4197
 Red. masses --     4.9917                 2.2031                 1.6142
 Frc consts  --     1.4653                 0.7284                 0.5822
 IR Inten    --     2.2186                16.8652                15.3780

                    19                     20                     21
                     A                      A                      A
 Frequencies --   822.4174               891.1422               946.8220
 Red. masses --     4.8819                 1.2949                 1.1029
 Frc consts  --     1.9455                 0.6059                 0.5825
 IR Inten    --     0.8322                 0.0198               164.1430

                    22                     23                     24
                     A                      A                      A
 Frequencies --   966.3396               996.4710              1013.1438
 Red. masses --     1.3508                 1.2813                 3.2733
 Frc consts  --     0.7432                 0.7496                 1.9796
 IR Inten    --     0.6454                 0.0200               170.7986

                    25                     26                     27
                     A                      A                      A
 Frequencies --  1027.1833              1076.2745              1080.9281
 Red. masses --     1.5572                 1.5426                 2.4479
 Frc consts  --     0.9680                 1.0528                 1.6851
 IR Inten    --     1.5952                 4.0173                 3.2902

                    28                     29                     30
                     A                      A                      A
 Frequencies --  1109.7774              1164.7376              1198.5830
 Red. masses --     2.2653                 1.6016                 1.1212
 Frc consts  --     1.6438                 1.2801                 0.9490
 IR Inten    --    24.6784                 6.2454                 1.0701

                    31                     32                     33
                     A                      A                      A
 Frequencies --  1232.7335              1310.1816              1332.6173
 Red. masses --     2.4924                 1.8114                 4.1510
 Frc consts  --     2.2316                 1.8320                 4.3433
 IR Inten    --     0.8976                10.2930                24.6057

                    34                     35                     36
                     A                      A                      A
 Frequencies --  1383.9471              1390.0408              1446.5645
 Red. masses --     4.5940                 3.8157                 1.2309
 Frc consts  --     5.1842                 4.3438                 1.5176
 IR Inten    --   213.9158               243.8992                 0.3831

                    37                     38                     39
                     A                      A                      A
 Frequencies --  1488.1633              1513.6196              1518.1671
 Red. masses --     2.1253                 1.0450                 1.2560
 Frc consts  --     2.7732                 1.4106                 1.7056
 IR Inten    --    56.1682                 4.8071                35.9874

                    40                     41                     42
                     A                      A                      A
 Frequencies --  1536.2185              1624.8915              1659.3785
 Red. masses --     2.0605                 5.3340                 5.3739
 Frc consts  --     2.8650                 8.2977                 8.7184
 IR Inten    --     7.5465                10.1545                28.2778

                    43                     44                     45
                     A                      A                      A
 Frequencies --  3057.5340              3119.8691              3125.6855
 Red. masses --     1.0358                 1.1001                 1.1033
 Frc consts  --     5.7053                 6.3089                 6.3511
 IR Inten    --    26.0651                14.7368                22.7443

                    46                     47                     48
                     A                      A                      A
 Frequencies --  3171.4955              3184.1784              3197.5774
 Red. masses --     1.0857                 1.0891                 1.0937
 Frc consts  --     6.4341                 6.5057                 6.5888
 IR Inten    --     6.4826                20.4542                31.5744

                    49                     50                     51
                     A                      A                      A
 Frequencies --  3211.2849              3771.3557              3787.4618
 Red. masses --     1.0944                 1.0662                 1.0658
 Frc consts  --     6.6495                 8.9350                 9.0076
 IR Inten    --    18.6108                14.5777                27.9058

 - Thermochemistry -
 -------------------
 Temperature   298.150 Kelvin.  Pressure   1.00000 Atm.
 Atom     1 has atomic number  8 and mass  15.99491

 Molecular mass:   136.06956 amu.
 Principal axes and moments of inertia in atomic units:
                           1         2         3
     Eigenvalues --   840.367211618.690212448.02218
           X            0.99998  -0.00661  -0.00000
           Y            0.00661   0.99998   0.00002
           Z            0.00000  -0.00002   1.00000
 This molecule is an asymmetric top.
 Rotational symmetry number  1.
 Warning -- assumption of classical behavior for rotation
           may cause significant error
 Rotational temperatures (Kelvin)      0.10307     0.05351     0.03538
 Rotational constants (GHZ):           2.14756     1.11494     0.73722
 Zero-point vibrational energy     401324.8 (Joules/Mol)
                                   95.91893 (Kcal/Mol)
 Warning -- explicit consideration of  14 degrees of freedom as
           vibrations may cause significant error
 Vibrational temperatures:     45.89   175.66   243.73   285.47   324.05
          (Kelvin)            466.12   492.62   554.21   605.30   667.14
                              706.36   773.63   793.63   844.71   937.82
                             1015.56  1077.76  1125.73  1183.27  1282.15
                             1362.26  1390.35  1433.70  1457.69  1477.89
                             1548.52  1555.21  1596.72  1675.80  1724.49
                             1773.63  1885.06  1917.34  1991.19  1999.96
                             2081.28  2141.13  2177.76  2184.30  2210.27
                             2337.85  2387.47  4399.10  4488.79  4497.16
                             4563.07  4581.32  4600.59  4620.32  5426.13
                             5449.31

 Zero-point correction=                           0.152857 (Hartree/Particle)
 Thermal correction to Energy=                    0.162301
 Thermal correction to Enthalpy=                  0.163245
 Thermal correction to Gibbs Free Energy=         0.117929
 Sum of electronic and zero-point Energies=           -447.420379
 Sum of electronic and thermal Energies=              -447.410935
 Sum of electronic and thermal Enthalpies=            -447.409991
 Sum of electronic and thermal Free Energies=         -447.455307

                     E (Thermal)             CV                S
                      KCal/Mol        Cal/Mol-Kelvin    Cal/Mol-Kelvin
 Total                  101.845             36.196             95.375
 Electronic               0.000              0.000              0.000
 Translational            0.889              2.981             40.636
 Rotational               0.889              2.981             29.589
 Vibrational            100.068             30.235             25.150
 Vibration     1          0.594              1.983              5.708
 Vibration     2          0.610              1.931              3.067
 Vibration     3          0.625              1.880              2.442
 Vibration     4          0.637              1.842              2.148
 Vibration     5          0.650              1.803              1.917
 Vibration     6          0.709              1.628              1.290
 Vibration     7          0.722              1.591              1.201
 Vibration     8          0.754              1.502              1.019
 Vibration     9          0.783              1.425              0.890
 Vibration    10          0.821              1.331              0.755
 Vibration    11          0.847              1.270              0.681
 Vibration    12          0.893              1.167              0.570
 Vibration    13          0.907              1.136              0.541
 Vibration    14          0.944              1.059              0.472

 Optimization completed.
    -- Stationary point found.
 Normal termination of Gaussian 09 at Sun Oct  3 16:27:19 2021.
 Gaussian 09:  AM64L-G09RevA.02 11-Jun-2009

 ----------------------------------------------------------------------
 #p TD(NStates=10, Root=1) b3lyp/6-31G* volume pop=NPA density=current
 Geom=AllCheck Guess=Read
 ----------------------------------------------------------------------

 OB(c1ccccc1C)O_conf_0
 ---------------------
 Redundant internal coordinates taken from checkpoint file:
 C7H9BO2_6d96_conf_0.chk
 Charge =  0 Multiplicity = 1

                         Standard orientation:
 ---------------------------------------------------------------------
 Center     Atomic      Atomic             Coordinates (Angstroms)
 Number     Number       Type             X           Y           Z
 ---------------------------------------------------------------------
      1          8           0       -2.478932    0.829602   -0.001224
      2          5           0       -1.718730   -0.318529    0.000025
      3          6           0       -0.153852   -0.239197    0.000055
      4          6           0        0.546035   -1.461669   -0.000248
      5          6           0        1.937706   -1.521178   -0.000371
      6          6           0        2.667574   -0.333880   -0.000158
      7          6           0        1.997529    0.889335    0.000171
      8          6           0        0.598408    0.964452    0.000251
      9          6           0       -0.044193    2.335042    0.000479
     10          8           0       -2.285408   -1.575569    0.000991
     11          1           0       -3.433991    0.671221   -0.000881
     12          1           0       -0.025695   -2.384992   -0.000341
     13          1           0        2.445856   -2.482060   -0.000653
     14          1           0        3.754812   -0.355524   -0.000242
     15          1           0        2.573386    1.812255    0.000372
     16          1           0        0.721278    3.118033    0.001388
     17          1           0       -0.685561    2.481879    0.875654
     18          1           0       -0.684437    2.482669   -0.875371
     19          1           0       -3.252524   -1.580532    0.000737
 ---------------------------------------------------------------------

 SCF Done:  E(RB3LYP) =  -447.573235772     A.U. after    1 cycles

 Excitation energies and oscillator strengths:

 Excited State   1:      Singlet-A      5.0154 eV  247.21 nm  f=0.0274  <S**2>=0.000
      35 -> 37         0.20649
      35 -> 38         0.29487
      36 -> 37         0.59097
      36 -> 38        -0.14488
 This state for optimization and/or second-order correction.
 Total Energy, E(TD-HF/TD-KS) =  -447.388923169
 Copying the excited state density for this state as the 1-particle RhoCI density.

 Excited State   2:      Singlet-A      5.6690 eV  218.71 nm  f=0.1346  <S**2>=0.000
      35 -> 37         0.59081
      36 -> 37        -0.25622
      36 -> 38        -0.28255

 Excited State   3:      Singlet-A      6.6249 eV  187.15 nm  f=0.0000  <S**2>=0.000
      35 -> 39        -0.15746
      36 -> 39         0.68398

 Excited State   4:      Singlet-A      6.7168 eV  184.59 nm  f=0.4242  <S**2>=0.000
      35 -> 37        -0.26025
      35 -> 38         0.43951
      36 -> 37        -0.22722
      36 -> 38        -0.39377
      36 -> 40        -0.13110

 Excited State   5:      Singlet-A      6.7548 eV  183.55 nm  f=0.0045  <S**2>=0.000
      34 -> 37         0.65867
      35 -> 39        -0.21561
      36 -> 39        -0.12386

 Excited State   6:      Singlet-A      6.8209 eV  181.77 nm  f=0.4724  <S**2>=0.000
      35 -> 37         0.17549
      35 -> 38         0.42965
      36 -> 37        -0.15848
      36 -> 38         0.47435
      36 -> 40        -0.10770

 Excited State   7:      Singlet-A      6.8226 eV  181.73 nm  f=0.0035  <S**2>=0.000
      34 -> 37         0.23579
      35 -> 39         0.65070
      36 -> 39         0.12456

 Excited State   8:      Singlet-A      7.0657 eV  175.47 nm  f=0.0001  <S**2>=0.000
      32 -> 37         0.69864

 Excited State   9:      Singlet-A      7.4916 eV  165.50 nm  f=0.0001  <S**2>=0.000
      34 -> 38         0.69765

 Excited State  10:      Singlet-A      7.5918 eV  163.31 nm  f=0.0391  <S**2>=0.000
      33 -> 37         0.69657

 The electronic state is 1-A.
 Alpha  occ. eigenvalues --  -19.16262 -19.16051 -10.18807 -10.18067 -10.17499
 Alpha  occ. eigenvalues --  -10.17420 -10.17354 -10.16519 -10.15920  -6.78351
 Alpha  occ. eigenvalues --   -1.03860  -1.00276  -0.83777  -0.75484  -0.72892
 Alpha  occ. eigenvalues --   -0.66822  -0.59903  -0.57872  -0.54967  -0.53693
 Alpha  occ. eigenvalues --   -0.48640  -0.44046  -0.43328  -0.42906  -0.40556
 Alpha  occ. eigenvalues --   -0.39324  -0.38052  -0.38012  -0.36730  -0.33822
 Alpha  occ. eigenvalues --   -0.33779  -0.32210  -0.31865  -0.30750  -0.23697
 Alpha  occ. eigenvalues --   -0.22809
 Alpha virt. eigenvalues --   -0.01540   0.01710   0.03892   0.09871   0.10488
 Alpha virt. eigenvalues --    0.11247   0.14071   0.15354   0.17289   0.18279
 Alpha virt. eigenvalues --    0.19187   0.21277   0.21816   0.22610   0.24917

 Mulliken atomic charges:
              1
     1  O   -0.580608
     2  B    0.291383
     3  C    0.066377
     4  C   -0.202081
     5  C   -0.100468
     6  C   -0.153437
     7  C   -0.151676
     8  C    0.086666
     9  C   -0.504990
    10  O   -0.576435
    11  H    0.380687
    12  H    0.157090
    13  H    0.140087
    14  H    0.125086
    15  H    0.133619
    16  H    0.141585
    17  H    0.182824
    18  H    0.182868
    19  H    0.381421
 Sum of Mulliken atomic charges =  -0.00000

 Dipole moment (field-independent basis, Debye):
    X=             -1.1878    Y=              0.3305    Z=              0.0000  Tot=              1.2329
 Quadrupole moment (field-independent basis, Debye-Ang):
   XX=            -41.3884   YY=            -55.9739   ZZ=            -60.6134
   XY=              1.0558   XZ=             -0.0012   YZ=              0.0056

 Summary of Natural Population Analysis:

                                       Natural Population
                Natural  -----------------------------------------------
    Atom  No    Charge         Core      Valence    Rydberg      Total
 -----------------------------------------------------------------------
      O    1   -0.89949      1.99975     6.88986    0.00988     8.89949
      B    2    1.02080      1.99926     1.95319    0.02675     3.97920
      C    3   -0.42481      1.99893     4.40618    0.01970     6.42481
      C    4   -0.16839      1.99915     4.15235    0.01689     6.16839
      C    5   -0.16092      1.99911     4.14556    0.01624     6.16092
      C    6   -0.30320      1.99915     4.28598    0.01807     6.30320
      C    7   -0.16962      1.99906     4.15512    0.01544     6.16962
      C    8    0.06610      1.99907     3.91889    0.01595     5.93390
      C    9   -0.69757      1.99940     4.69029    0.00789     6.69757
      O   10   -0.90016      1.99975     6.89071    0.00971     8.90016
      H   11    0.47552      0.00000     0.52216    0.00232     0.52448
      H   12    0.24334      0.00000     0.75525    0.00141     0.75666
      H   13    0.23063      0.00000     0.76846    0.00091     0.76937
      H   14    0.23081      0.00000     0.76832    0.00087     0.76919
      H   15    0.22679      0.00000     0.77209    0.00112     0.77321
      H   16    0.22751      0.00000     0.77151    0.00097     0.77249
      H   17    0.26297      0.00000     0.73539    0.00164     0.73703
      H   18    0.26299      0.00000     0.73537    0.00164     0.73701
      H   19    0.47669      0.00000     0.52115    0.00216     0.52331
 =======================================================================
   * Total *   -0.00000     19.99263    51.83782    0.16955    72.00000

 Normal termination of Gaussian 09 at Sun Oct  3 19:38:23 2021.
