 Gaussian 09, Revision A.02,

 -----------------------------------
 #p opt b3lyp/6-31G* scf=(xqc,tight)
 -----------------------------------

 -----------------------
 Cc1cccc(c1)B(O)O_conf_0
 -----------------------
 Symbolic Z-matrix:
 Charge =  0 Multiplicity = 1

 SCF Done:  E(RB3LYP) =  -447.537162350     A.U. after   14 cycles
 SCF Done:  E(RB3LYP) =  -447.546391094     A.U. after   13 cycles
 SCF Done:  E(RB3LYP) =  -447.549235960     A.U. after   12 cycles
 SCF Done:  E(RB3LYP) =  -447.555991575     A.U. after   14 cycles
 SCF Done:  E(RB3LYP) =  -447.560834433     A.U. after   12 cycles
 SCF Done:  E(RB3LYP) =  -447.572377624     A.U. after   13 cycles
 SCF Done:  E(RB3LYP) =  -447.576303865     A.U. after   15 cycles
 SCF Done:  E(RB3LYP) =  -447.576598682     A.U. after   15 cycles
 SCF Done:  E(RB3LYP) =  -447.576611524     A.U. after   11 cycles
 SCF Done:  E(RB3LYP) =  -447.576664838     A.U. after   15 cycles
 SCF Done:  E(RB3LYP) =  -447.576676330     A.U. after   15 cycles
 Optimization completed.
    -- Stationary point found.
 Normal termination of Gaussian 09 at Mon Oct  4 14:07:42 2021.

 ----------------------------------------------------------------------
 #p freq b3lyp/6-31G* volume NMR pop=NPA density=current Geom=AllCheck
 Guess=Read
 ----------------------------------------------------------------------

 Cc1cccc(c1)B(O)O_conf_0
 -----------------------
 Redundant internal coordinates taken from checkpoint file:
 C7H9BO2_6640_conf_0.chk
 Charge =  0 Multiplicity = 1

 SCF Done:  E(RB3LYP) =  -447.576676330     A.U. after    1 cycles

  1  C    Isotropic =   167.5405   Anisotropy =    34.8521

  2  C    Isotropic =    60.3414   Anisotropy =   176.7528

  3  C    Isotropic =    64.2659   Anisotropy =   148.6181

  4  C    Isotropic =    69.5306   Anisotropy =   160.6696

  5  C    Isotropic =    63.1822   Anisotropy =   176.2011

  6  C    Isotropic =    66.0845   Anisotropy =   190.3221

  7  C    Isotropic =    59.8678   Anisotropy =   167.2240

  8  B    Isotropic =    85.2444   Anisotropy =    17.4762

  9  O    Isotropic =   226.9561   Anisotropy =    60.0235

 10  O    Isotropic =   226.4548   Anisotropy =    60.3937

 11  H    Isotropic =    30.4580   Anisotropy =     7.1600

 12  H    Isotropic =    29.7255   Anisotropy =     7.6905

 13  H    Isotropic =    29.7264   Anisotropy =     7.6857

 14  H    Isotropic =    25.1423   Anisotropy =     6.3307

 15  H    Isotropic =    25.0886   Anisotropy =     4.7938

 16  H    Isotropic =    24.4167   Anisotropy =     7.9642

 17  H    Isotropic =    24.3053   Anisotropy =    10.7021

 18  H    Isotropic =    29.5034   Anisotropy =    13.0112

 19  H    Isotropic =    29.4903   Anisotropy =    12.9924

  Exact polarizability: 121.940  -0.074  99.873  -0.001  -0.000  39.935
 Approx polarizability: 175.442  -1.369 162.715  -0.000  -0.001  59.552

 ******    1 imaginary frequencies (negative Signs) ******

                     1                      2                      3
                     A                      A                      A
 Frequencies --   -43.5445                48.1282               135.1162
 Red. masses --     1.0310                 7.0745                 3.9661
 Frc consts  --     0.0012                 0.0097                 0.0427
 IR Inten    --     0.0906                 0.0652                 8.3630

                     4                      5                      6
                     A                      A                      A
 Frequencies --   141.7108               217.7817               308.6305
 Red. masses --     4.6074                 2.9621                 3.9753
 Frc consts  --     0.0545                 0.0828                 0.2231
 IR Inten    --     3.6080                 0.1980                 3.6745

                     7                      8                      9
                     A                      A                      A
 Frequencies --   342.8471               382.2752               416.9086
 Red. masses --     4.7946                 1.0859                 2.5113
 Frc consts  --     0.3321                 0.0935                 0.2572
 IR Inten    --     3.7239                 0.8368                24.2637

                    10                     11                     12
                     A                      A                      A
 Frequencies --   444.9356               470.4449               531.4648
 Red. masses --     4.5900                 2.3404                 4.7811
 Frc consts  --     0.5354                 0.3052                 0.7957
 IR Inten    --     4.6419                15.7479                12.9687

                    13                     14                     15
                     A                      A                      A
 Frequencies --   550.3252               559.1304               659.5895
 Red. masses --     1.5570                 3.6183                 6.4084
 Frc consts  --     0.2778                 0.6665                 1.6427
 IR Inten    --   190.9061                37.3589                39.7694

                    16                     17                     18
                     A                      A                      A
 Frequencies --   712.9689               723.9275               810.5937
 Red. masses --     5.8759                 2.2510                 1.4890
 Frc consts  --     1.7598                 0.6950                 0.5764
 IR Inten    --     2.1335                19.5143                15.0584

                    19                     20                     21
                     A                      A                      A
 Frequencies --   875.9821               931.6937               944.6452
 Red. masses --     4.6041                 1.2982                 1.1034
 Frc consts  --     2.0816                 0.6640                 0.5801
 IR Inten    --     8.4265                 0.1240               175.8656

                    22                     23                     24
                     A                      A                      A
 Frequencies --   945.8716               988.3836              1011.8913
 Red. masses --     1.3637                 1.2994                 2.6704
 Frc consts  --     0.7189                 0.7479                 1.6110
 IR Inten    --     1.8322                 0.1799                 8.0903

                    25                     26                     27
                     A                      A                      A
 Frequencies --  1015.7665              1034.0098              1077.0416
 Red. masses --     2.6958                 1.8679                 1.5251
 Frc consts  --     1.6388                 1.1767                 1.0423
 IR Inten    --    93.3780                73.6941                 4.4950

                    28                     29                     30
                     A                      A                      A
 Frequencies --  1123.2663              1143.7942              1207.2979
 Red. masses --     1.8630                 1.5198                 1.1758
 Frc consts  --     1.3849                 1.1715                 1.0098
 IR Inten    --     8.2352                14.0110                 0.3291

                    31                     32                     33
                     A                      A                      A
 Frequencies --  1242.1602              1327.9830              1361.4767
 Red. masses --     2.3924                 2.6760                 1.8849
 Frc consts  --     2.1749                 2.7805                 2.0585
 IR Inten    --     2.7432                12.6521                12.0908

                    34                     35                     36
                     A                      A                      A
 Frequencies --  1389.7840              1396.4786              1441.6107
 Red. masses --     3.9607                 5.0996                 1.2547
 Frc consts  --     4.5073                 5.8594                 1.5363
 IR Inten    --   245.3804               256.9366                 2.0852

                    37                     38                     39
                     A                      A                      A
 Frequencies --  1464.8007              1515.5185              1522.4970
 Red. masses --     3.2249                 1.0446                 1.3012
 Frc consts  --     4.0768                 1.4136                 1.7771
 IR Inten    --    78.5719                 4.9567                19.7877

                    40                     41                     42
                     A                      A                      A
 Frequencies --  1541.7740              1641.9104              1662.4250
 Red. masses --     1.8403                 4.9885                 5.5717
 Frc consts  --     2.5774                 7.9235                 9.0724
 IR Inten    --     1.9345                 8.7779                11.5568

                    43                     44                     45
                     A                      A                      A
 Frequencies --  3041.9344              3093.6741              3120.5748
 Red. masses --     1.0371                 1.1009                 1.1012
 Frc consts  --     5.6541                 6.2082                 6.3179
 IR Inten    --    33.5487                22.3790                18.9180

                    46                     47                     48
                     A                      A                      A
 Frequencies --  3170.0621              3181.9256              3188.1625
 Red. masses --     1.0867                 1.0896                 1.0911
 Frc consts  --     6.4340                 6.4996                 6.5340
 IR Inten    --    10.8773                14.2729                22.5165

                    49                     50                     51
                     A                      A                      A
 Frequencies --  3206.6671              3781.8114              3786.0367
 Red. masses --     1.0943                 1.0671                 1.0650
 Frc consts  --     6.6296                 8.9919                 8.9940
 IR Inten    --    19.4011                 5.9504                39.1250

 - Thermochemistry -
 -------------------
 Temperature   298.150 Kelvin.  Pressure   1.00000 Atm.
 Atom     1 has atomic number  6 and mass  12.00000

 Molecular mass:   136.06956 amu.
 Principal axes and moments of inertia in atomic units:
                           1         2         3
     Eigenvalues --   727.099142040.705102756.61589
           X            0.99983   0.01832  -0.00000
           Y           -0.01832   0.99983   0.00001
           Z            0.00000  -0.00001   1.00000
 This molecule is an asymmetric top.
 Rotational symmetry number  1.
 Warning -- assumption of classical behavior for rotation
           may cause significant error
 Rotational temperatures (Kelvin)      0.11912     0.04244     0.03142
 Rotational constants (GHZ):           2.48211     0.88437     0.65469
    1 imaginary frequencies ignored.
 Zero-point vibrational energy     399766.2 (Joules/Mol)
                                   95.54641 (Kcal/Mol)
 Warning -- explicit consideration of  13 degrees of freedom as
           vibrations may cause significant error
 Vibrational temperatures:     69.25   194.40   203.89   313.34   444.05
          (Kelvin)            493.28   550.01   599.84   640.16   676.86
                              764.66   791.79   804.46   949.00  1025.80
                             1041.57  1166.26  1260.34  1340.50  1359.13
                             1360.90  1422.06  1455.88  1461.46  1487.71
                             1549.62  1616.13  1645.66  1737.03  1787.19
                             1910.67  1958.86  1999.59  2009.22  2074.15
                             2107.52  2180.49  2190.53  2218.27  2362.34
                             2391.86  4376.66  4451.10  4489.81  4561.01
                             4578.08  4587.05  4613.67  5441.18  5447.26

 Zero-point correction=                           0.152263 (Hartree/Particle)
 Thermal correction to Energy=                    0.161205
 Thermal correction to Enthalpy=                  0.162149
 Thermal correction to Gibbs Free Energy=         0.117936
 Sum of electronic and zero-point Energies=           -447.424413
 Sum of electronic and thermal Energies=              -447.415471
 Sum of electronic and thermal Enthalpies=            -447.414527
 Sum of electronic and thermal Free Energies=         -447.458740

                     E (Thermal)             CV                S
                      KCal/Mol        Cal/Mol-Kelvin    Cal/Mol-Kelvin
 Total                  101.158             34.486             93.054
 Electronic               0.000              0.000              0.000
 Translational            0.889              2.981             40.636
 Rotational               0.889              2.981             29.793
 Vibrational             99.380             28.524             22.625
 Vibration     1          0.595              1.978              4.893
 Vibration     2          0.613              1.918              2.872
 Vibration     3          0.615              1.912              2.781
 Vibration     4          0.646              1.814              1.977
 Vibration     5          0.698              1.657              1.370
 Vibration     6          0.722              1.590              1.199
 Vibration     7          0.752              1.508              1.030
 Vibration     8          0.780              1.434              0.903
 Vibration     9          0.804              1.372              0.811
 Vibration    10          0.827              1.316              0.736
 Vibration    11          0.886              1.180              0.584
 Vibration    12          0.906              1.139              0.543
 Vibration    13          0.915              1.120              0.526

 Normal termination of Gaussian 09 at Mon Oct  4 14:59:05 2021.
 Gaussian 09:  AM64L-G09RevA.02 11-Jun-2009

 ----------------------------------------------------------------------
 #p TD(NStates=10, Root=1) b3lyp/6-31G* volume pop=NPA density=current
 Geom=AllCheck Guess=Read
 ----------------------------------------------------------------------

 Cc1cccc(c1)B(O)O_conf_0
 -----------------------
 Redundant internal coordinates taken from checkpoint file:
 C7H9BO2_6640_conf_0.chk
 Charge =  0 Multiplicity = 1

                         Standard orientation:
 ---------------------------------------------------------------------
 Center     Atomic      Atomic             Coordinates (Angstroms)
 Number     Number       Type             X           Y           Z
 ---------------------------------------------------------------------
      1          6           0       -2.917185   -1.484617   -0.000082
      2          6           0       -1.834439   -0.428955   -0.000071
      3          6           0       -2.150865    0.934587   -0.000033
      4          6           0       -1.145932    1.905457    0.000086
      5          6           0        0.192733    1.522615    0.000099
      6          6           0        0.548711    0.161500    0.000088
      7          6           0       -0.481531   -0.791954    0.000018
      8          5           0        2.047363   -0.278335    0.000021
      9          8           0        2.331352   -1.625010    0.000220
     10          8           0        3.012786    0.702221   -0.000275
     11          1           0       -3.915274   -1.034504   -0.002016
     12          1           0       -2.845728   -2.132528    0.882507
     13          1           0       -2.843359   -2.134983   -0.880648
     14          1           0       -3.195447    1.240047   -0.000106
     15          1           0       -1.413705    2.959319    0.000148
     16          1           0        0.974240    2.277345    0.000061
     17          1           0       -0.216982   -1.847332    0.000067
     18          1           0        3.274802   -1.838759   -0.000596
     19          1           0        3.922593    0.373583    0.000296
 ---------------------------------------------------------------------

 SCF Done:  E(RB3LYP) =  -447.576676330     A.U. after    1 cycles

 Excitation energies and oscillator strengths:

 Excited State   1:      Singlet-A      5.0533 eV  245.35 nm  f=0.0136  <S**2>=0.000
      35 -> 37         0.13689
      35 -> 38        -0.34090
      36 -> 37         0.59483
      36 -> 38         0.10352
 This state for optimization and/or second-order correction.
 Total Energy, E(TD-HF/TD-KS) =  -447.390971089
 Copying the excited state density for this state as the 1-particle RhoCI density.

 Excited State   2:      Singlet-A      5.7575 eV  215.34 nm  f=0.1081  <S**2>=0.000
      35 -> 37         0.59650
      36 -> 37        -0.17178
      36 -> 38         0.33051

 Excited State   3:      Singlet-A      6.6443 eV  186.60 nm  f=0.6211  <S**2>=0.000
      35 -> 37        -0.33417
      35 -> 38        -0.16396
      35 -> 40        -0.11275
      36 -> 37        -0.11854
      36 -> 38         0.56769

 Excited State   4:      Singlet-A      6.6889 eV  185.36 nm  f=0.0000  <S**2>=0.000
      36 -> 39         0.69978

 Excited State   5:      Singlet-A      6.7348 eV  184.09 nm  f=0.3507  <S**2>=0.000
      35 -> 38         0.57277
      36 -> 37         0.30853
      36 -> 38         0.20499
      36 -> 40         0.15847

 Excited State   6:      Singlet-A      6.8454 eV  181.12 nm  f=0.0007  <S**2>=0.000
      34 -> 37         0.36306
      35 -> 39         0.59694

 Excited State   7:      Singlet-A      6.9011 eV  179.66 nm  f=0.0036  <S**2>=0.000
      34 -> 37         0.60240
      35 -> 39        -0.36519

 Excited State   8:      Singlet-A      7.1372 eV  173.71 nm  f=0.0000  <S**2>=0.000
      32 -> 37         0.69429

 Excited State   9:      Singlet-A      7.4407 eV  166.63 nm  f=0.0000  <S**2>=0.000
      34 -> 38         0.69823

 Excited State  10:      Singlet-A      7.6670 eV  161.71 nm  f=0.0377  <S**2>=0.000
      33 -> 37         0.69607

 The electronic state is 1-A.
 Alpha  occ. eigenvalues --  -19.16086 -19.16078 -10.18470 -10.17854 -10.17602
 Alpha  occ. eigenvalues --  -10.17566 -10.17388 -10.17317 -10.15799  -6.78173
 Alpha  occ. eigenvalues --   -1.03663  -1.00245  -0.83870  -0.75654  -0.72854
 Alpha  occ. eigenvalues --   -0.67243  -0.60031  -0.57946  -0.54774  -0.53594
 Alpha  occ. eigenvalues --   -0.48971  -0.44063  -0.43049  -0.42626  -0.40994
 Alpha  occ. eigenvalues --   -0.39387  -0.38516  -0.37924  -0.37354  -0.34039
 Alpha  occ. eigenvalues --   -0.33657  -0.32147  -0.31859  -0.30973  -0.23695
 Alpha  occ. eigenvalues --   -0.22786
 Alpha virt. eigenvalues --   -0.01218   0.01312   0.04082   0.09944   0.10530
 Alpha virt. eigenvalues --    0.11097   0.13177   0.16334   0.16959   0.17750
 Alpha virt. eigenvalues --    0.18581   0.20724   0.21616   0.22322   0.24739

 Mulliken atomic charges:
              1
     1  C   -0.531776
     2  C    0.198412
     3  C   -0.201531
     4  C   -0.110864
     5  C   -0.185275
     6  C    0.095095
     7  C   -0.246349
     8  B    0.298839
     9  O   -0.573195
    10  O   -0.573375
    11  H    0.160399
    12  H    0.173345
    13  H    0.173286
    14  H    0.119484
    15  H    0.135537
    16  H    0.156120
    17  H    0.146167
    18  H    0.382811
    19  H    0.382871
 Sum of Mulliken atomic charges =  -0.00000

 Dipole moment (field-independent basis, Debye):
    X=              0.5813    Y=             -0.7088    Z=             -0.0000  Tot=              0.9167
 Quadrupole moment (field-independent basis, Debye-Ang):
   XX=            -39.8565   YY=            -55.4645   ZZ=            -60.5668
   XY=             -3.0432   XZ=             -0.0014   YZ=              0.0034

 Summary of Natural Population Analysis:

                                       Natural Population
                Natural  -----------------------------------------------
    Atom  No    Charge         Core      Valence    Rydberg      Total
 -----------------------------------------------------------------------
      C    1   -0.69753      1.99940     4.69040    0.00773     6.69753
      C    2    0.03404      1.99906     3.95093    0.01597     5.96596
      C    3   -0.28399      1.99907     4.26826    0.01666     6.28399
      C    4   -0.19902      1.99913     4.18277    0.01712     6.19902
      C    5   -0.13565      1.99912     4.12029    0.01624     6.13565
      C    6   -0.41238      1.99900     4.39305    0.02033     6.41238
      C    7   -0.17061      1.99906     4.15520    0.01634     6.17061
      B    8    1.02834      1.99924     1.94585    0.02657     3.97166
      O    9   -0.89721      1.99975     6.88769    0.00976     8.89721
      O   10   -0.89699      1.99975     6.88750    0.00973     8.89699
      H   11    0.23962      0.00000     0.75952    0.00086     0.76038
      H   12    0.25176      0.00000     0.74674    0.00150     0.74824
      H   13    0.25172      0.00000     0.74679    0.00150     0.74828
      H   14    0.22637      0.00000     0.77259    0.00104     0.77363
      H   15    0.23114      0.00000     0.76792    0.00093     0.76886
      H   16    0.23999      0.00000     0.75869    0.00132     0.76001
      H   17    0.23622      0.00000     0.76231    0.00147     0.76378
      H   18    0.47708      0.00000     0.52077    0.00215     0.52292
      H   19    0.47709      0.00000     0.52076    0.00216     0.52291
 =======================================================================
   * Total *    0.00000     19.99259    51.83803    0.16938    72.00000

 Normal termination of Gaussian 09 at Mon Oct  4 17:27:51 2021.
