 Gaussian 09, Revision A.02,

 -----------------------------------
 #p opt b3lyp/6-31G* scf=(xqc,tight)
 -----------------------------------

 -----------------
 CNc1ccccc1_conf_0
 -----------------
 Symbolic Z-matrix:
 Charge =  0 Multiplicity = 1

 SCF Done:  E(RB3LYP) =  -326.908053248     A.U. after   14 cycles
 SCF Done:  E(RB3LYP) =  -326.909400276     A.U. after   12 cycles
 SCF Done:  E(RB3LYP) =  -326.909539527     A.U. after   11 cycles
 SCF Done:  E(RB3LYP) =  -326.909600175     A.U. after   11 cycles
 SCF Done:  E(RB3LYP) =  -326.909622453     A.U. after   10 cycles
 SCF Done:  E(RB3LYP) =  -326.909625870     A.U. after    8 cycles
 SCF Done:  E(RB3LYP) =  -326.909626328     A.U. after    8 cycles
 SCF Done:  E(RB3LYP) =  -326.909626583     A.U. after    8 cycles
 Optimization completed.
    -- Stationary point found.
 Normal termination of Gaussian 09 at Mon Oct  4 21:38:19 2021.

 ----------------------------------------------------------------------
 #p freq b3lyp/6-31G* volume NMR pop=NPA density=current Geom=AllCheck
 Guess=Read
 ----------------------------------------------------------------------

 CNc1ccccc1_conf_0
 -----------------
 Redundant internal coordinates taken from checkpoint file:
 C7H9N_15f4_conf_0.chk
 Charge =  0 Multiplicity = 1

 SCF Done:  E(RB3LYP) =  -326.909626583     A.U. after    1 cycles

  1  C    Isotropic =   159.2756   Anisotropy =    39.8302

  2  N    Isotropic =   196.0343   Anisotropy =    71.7125

  3  C    Isotropic =    50.2128   Anisotropy =   156.6222

  4  C    Isotropic =    82.0740   Anisotropy =   124.3983

  5  C    Isotropic =    67.8557   Anisotropy =   162.8319

  6  C    Isotropic =    79.2732   Anisotropy =   150.1939

  7  C    Isotropic =    67.1694   Anisotropy =   164.9980

  8  C    Isotropic =    86.8935   Anisotropy =   142.1521

  9  H    Isotropic =    29.6253   Anisotropy =     8.5263

 10  H    Isotropic =    29.3754   Anisotropy =     8.5436

 11  H    Isotropic =    29.6223   Anisotropy =     8.6181

 12  H    Isotropic =    29.7180   Anisotropy =    12.0238

 13  H    Isotropic =    26.0369   Anisotropy =     6.2579

 14  H    Isotropic =    25.2453   Anisotropy =     4.3063

 15  H    Isotropic =    25.6763   Anisotropy =     3.5548

 16  H    Isotropic =    25.1469   Anisotropy =     4.6675

 17  H    Isotropic =    25.9436   Anisotropy =     7.6428

  Exact polarizability: 111.106   1.105  84.612   0.868  -0.689  34.287
 Approx polarizability: 166.708   4.759 141.363   3.806  -0.858  50.404

                     1                      2                      3
                     A                      A                      A
 Frequencies --   100.0354               183.7999               242.8120
 Red. masses --     2.8988                 1.5120                 2.4217
 Frc consts  --     0.0171                 0.0301                 0.0841
 IR Inten    --     1.8949                 2.0492                 3.0245

                     4                      5                      6
                     A                      A                      A
 Frequencies --   256.6988               402.5247               421.1460
 Red. masses --     1.8664                 1.9834                 3.1172
 Frc consts  --     0.0725                 0.1893                 0.3257
 IR Inten    --     0.9925                77.1963                 1.5989

                     7                      8                      9
                     A                      A                      A
 Frequencies --   474.2033               525.7167               603.7154
 Red. masses --     2.9504                 2.8304                 2.4343
 Frc consts  --     0.3909                 0.4609                 0.5227
 IR Inten    --    54.2000                 6.6297                31.6395

                    10                     11                     12
                     A                      A                      A
 Frequencies --   633.5012               705.0108               763.3111
 Red. masses --     6.3878                 2.0878                 1.7068
 Frc consts  --     1.5104                 0.6114                 0.5859
 IR Inten    --     0.2887                13.4763                54.2158

                    13                     14                     15
                     A                      A                      A
 Frequencies --   814.5914               824.2736               873.6016
 Red. masses --     3.4095                 1.2902                 1.5106
 Frc consts  --     1.3330                 0.5165                 0.6793
 IR Inten    --     3.1164                 0.3115                 8.0419

                    16                     17                     18
                     A                      A                      A
 Frequencies --   947.7823               975.5121              1008.3010
 Red. masses --     1.3178                 1.2196                 5.7174
 Frc consts  --     0.6975                 0.6838                 3.4248
 IR Inten    --     0.0034                 0.2411                 2.2566

                    19                     20                     21
                     A                      A                      A
 Frequencies --  1054.6240              1093.8663              1109.7385
 Red. masses --     2.4955                 2.2153                 1.5910
 Frc consts  --     1.6353                 1.5618                 1.1544
 IR Inten    --     1.8354                 8.2977                 3.8998

                    22                     23                     24
                     A                      A                      A
 Frequencies --  1159.3150              1189.9827              1192.4571
 Red. masses --     1.3239                 1.2920                 1.3319
 Frc consts  --     1.0484                 1.0779                 1.1159
 IR Inten    --    15.1729                 1.2141                 7.7598

                    25                     26                     27
                     A                      A                      A
 Frequencies --  1217.2122              1310.3881              1363.1066
 Red. masses --     1.1403                 2.6008                 2.0051
 Frc consts  --     0.9954                 2.6312                 2.1951
 IR Inten    --    10.3861                55.1764                45.8792

                    28                     29                     30
                     A                      A                      A
 Frequencies --  1375.9293              1475.3396              1490.4582
 Red. masses --     2.5452                 1.6211                 1.2600
 Frc consts  --     2.8390                 2.0790                 1.6492
 IR Inten    --    14.8203                14.2042                 1.7524

                    31                     32                     33
                     A                      A                      A
 Frequencies --  1513.1921              1542.4690              1552.7994
 Red. masses --     1.0653                 1.5401                 1.3057
 Frc consts  --     1.4371                 2.1588                 1.8549
 IR Inten    --    10.9048                 7.6027                 0.0609

                    34                     35                     36
                     A                      A                      A
 Frequencies --  1564.2672              1644.8644              1671.3722
 Red. masses --     1.8740                 4.7417                 5.5248
 Frc consts  --     2.7017                 7.5586                 9.0931
 IR Inten    --   136.3800                 5.1451               114.9397

                    37                     38                     39
                     A                      A                      A
 Frequencies --  2992.6242              3078.6656              3135.8498
 Red. masses --     1.0548                 1.0840                 1.0995
 Frc consts  --     5.5658                 6.0537                 6.3700
 IR Inten    --    82.8653                40.1489                24.9480

                    40                     41                     42
                     A                      A                      A
 Frequencies --  3165.6058              3180.2142              3189.2338
 Red. masses --     1.0869                 1.0864                 1.0918
 Frc consts  --     6.4171                 6.4737                 6.5431
 IR Inten    --    16.1513                 1.6991                32.2932

                    43                     44                     45
                     A                      A                      A
 Frequencies --  3207.4211              3215.7567              3596.8425
 Red. masses --     1.0942                 1.0937                 1.0760
 Frc consts  --     6.6320                 6.6634                 8.2015
 IR Inten    --    35.3538                10.0313                10.6691

 - Thermochemistry -
 -------------------
 Temperature   298.150 Kelvin.  Pressure   1.00000 Atm.
 Atom     1 has atomic number  6 and mass  12.00000

 Molecular mass:   107.07350 amu.
 Principal axes and moments of inertia in atomic units:
                           1         2         3
     Eigenvalues --   363.204781193.838111540.78697
           X            0.99993  -0.01107  -0.00356
           Y            0.01106   0.99993  -0.00385
           Z            0.00361   0.00381   0.99999
 This molecule is an asymmetric top.
 Rotational symmetry number  1.
 Rotational temperatures (Kelvin)      0.23847     0.07255     0.05621
 Rotational constants (GHZ):           4.96894     1.51171     1.17131
 Zero-point vibrational energy     383045.1 (Joules/Mol)
                                   91.54997 (Kcal/Mol)
 Warning -- explicit consideration of   9 degrees of freedom as
           vibrations may cause significant error
 Vibrational temperatures:    143.93   264.45   349.35   369.33   579.14
          (Kelvin)            605.93   682.27   756.39   868.61   911.47
                             1014.35  1098.23  1172.01  1185.94  1256.92
                             1363.65  1403.54  1450.72  1517.37  1573.83
                             1596.66  1667.99  1712.12  1715.68  1751.29
                             1885.35  1961.20  1979.65  2122.68  2144.43
                             2177.14  2219.27  2234.13  2250.63  2366.59
                             2404.73  4305.71  4429.51  4511.78  4554.59
                             4575.61  4588.59  4614.76  4626.75  5175.05

 Zero-point correction=                           0.145894 (Hartree/Particle)
 Thermal correction to Energy=                    0.153104
 Thermal correction to Enthalpy=                  0.154048
 Thermal correction to Gibbs Free Energy=         0.114598
 Sum of electronic and zero-point Energies=           -326.763732
 Sum of electronic and thermal Energies=              -326.756522
 Sum of electronic and thermal Enthalpies=            -326.755578
 Sum of electronic and thermal Free Energies=         -326.795029

                     E (Thermal)             CV                S
                      KCal/Mol        Cal/Mol-Kelvin    Cal/Mol-Kelvin
 Total                   96.074             27.801             83.031
 Electronic               0.000              0.000              0.000
 Translational            0.889              2.981             39.922
 Rotational               0.889              2.981             27.993
 Vibrational             94.297             21.839             15.116
 Vibration     1          0.604              1.949              3.454
 Vibration     2          0.631              1.862              2.289
 Vibration     3          0.659              1.775              1.782
 Vibration     4          0.666              1.751              1.684
 Vibration     5          0.768              1.465              0.953
 Vibration     6          0.784              1.424              0.888
 Vibration     7          0.831              1.307              0.726
 Vibration     8          0.881              1.193              0.597
 Vibration     9          0.962              1.024              0.443

 Normal termination of Gaussian 09 at Mon Oct  4 21:50:07 2021.
 Gaussian 09:  AM64L-G09RevA.02 11-Jun-2009

 ----------------------------------------------------------------------
 #p TD(NStates=10, Root=1) b3lyp/6-31G* volume pop=NPA density=current
 Geom=AllCheck Guess=Read
 ----------------------------------------------------------------------

 CNc1ccccc1_conf_0
 -----------------
 Redundant internal coordinates taken from checkpoint file:
 C7H9N_15f4_conf_0.chk
 Charge =  0 Multiplicity = 1

                         Standard orientation:
 ---------------------------------------------------------------------
 Center     Atomic      Atomic             Coordinates (Angstroms)
 Number     Number       Type             X           Y           Z
 ---------------------------------------------------------------------
      1          6           0       -2.836065    0.364375    0.107921
      2          7           0       -1.792683   -0.609121   -0.151169
      3          6           0       -0.443667   -0.273503   -0.060743
      4          6           0        0.522978   -1.298274   -0.006472
      5          6           0        1.878670   -0.995772    0.043799
      6          6           0        2.314903    0.333010    0.040533
      7          6           0        1.363857    1.350957   -0.011451
      8          6           0       -0.000950    1.061735   -0.057206
      9          1           0       -3.804303   -0.141537    0.066425
     10          1           0       -2.837547    1.141154   -0.665463
     11          1           0       -2.741722    0.861105    1.087905
     12          1           0       -2.001759   -1.541716    0.178579
     13          1           0        0.196247   -2.336664   -0.010619
     14          1           0        2.601718   -1.806722    0.086438
     15          1           0        3.374712    0.566785    0.079790
     16          1           0        1.681040    2.391082   -0.011159
     17          1           0       -0.717964    1.875193   -0.092007
 ---------------------------------------------------------------------

 SCF Done:  E(RB3LYP) =  -326.909626583     A.U. after    1 cycles

 Excitation energies and oscillator strengths:

 Excited State   1:      Singlet-A      4.7817 eV  259.29 nm  f=0.0345  <S**2>=0.000
      28 -> 31         0.22609
      29 -> 30         0.66732
 This state for optimization and/or second-order correction.
 Total Energy, E(TD-HF/TD-KS) =  -326.733903092
 Copying the excited state density for this state as the 1-particle RhoCI density.

 Excited State   2:      Singlet-A      5.6105 eV  220.98 nm  f=0.2104  <S**2>=0.000
      28 -> 30        -0.23714
      29 -> 31         0.65760

 Excited State   3:      Singlet-A      6.3843 eV  194.20 nm  f=0.0001  <S**2>=0.000
      29 -> 32         0.69008

 Excited State   4:      Singlet-A      6.6235 eV  187.19 nm  f=0.0954  <S**2>=0.000
      27 -> 30        -0.38537
      28 -> 30        -0.11442
      28 -> 31         0.53751
      29 -> 30        -0.17236

 Excited State   5:      Singlet-A      6.8766 eV  180.30 nm  f=0.5043  <S**2>=0.000
      27 -> 31         0.16874
      28 -> 30         0.62236
      28 -> 31         0.10944
      29 -> 31         0.21038

 Excited State   6:      Singlet-A      7.0129 eV  176.79 nm  f=0.0146  <S**2>=0.000
      29 -> 33         0.69627

 Excited State   7:      Singlet-A      7.3822 eV  167.95 nm  f=0.0097  <S**2>=0.000
      29 -> 34         0.69989

 Excited State   8:      Singlet-A      7.7692 eV  159.58 nm  f=0.3036  <S**2>=0.000
      27 -> 30         0.54836
      28 -> 31         0.34799
      28 -> 32        -0.21324
      29 -> 30        -0.13403

 Excited State   9:      Singlet-A      7.9291 eV  156.37 nm  f=0.0201  <S**2>=0.000
      26 -> 30         0.53666
      27 -> 30        -0.11519
      28 -> 32        -0.41101

 Excited State  10:      Singlet-A      7.9516 eV  155.92 nm  f=0.0213  <S**2>=0.000
      26 -> 30         0.45495
      27 -> 30         0.12608
      27 -> 31        -0.10304
      28 -> 32         0.47693
      28 -> 33         0.14305

 The electronic state is 1-A.
 Alpha  occ. eigenvalues --  -14.34126 -10.21919 -10.21542 -10.17932 -10.17880
 Alpha  occ. eigenvalues --  -10.17514 -10.17340 -10.16920  -0.92725  -0.82878
 Alpha  occ. eigenvalues --   -0.73655  -0.72987  -0.67461  -0.60025  -0.57885
 Alpha  occ. eigenvalues --   -0.52264  -0.48811  -0.46165  -0.43825  -0.43224
 Alpha  occ. eigenvalues --   -0.41120  -0.40805  -0.38647  -0.35937  -0.34692
 Alpha  occ. eigenvalues --   -0.33000  -0.28684  -0.23833  -0.19011
 Alpha virt. eigenvalues --    0.01141   0.02652   0.08419   0.10354   0.11544
 Alpha virt. eigenvalues --    0.15524   0.16070   0.16468   0.17341   0.18275
 Alpha virt. eigenvalues --    0.19842   0.20800   0.21656   0.27886   0.31502

 Mulliken atomic charges:
              1
     1  C   -0.320696
     2  N   -0.549824
     3  C    0.319715
     4  C   -0.216244
     5  C   -0.174271
     6  C   -0.099186
     7  C   -0.185889
     8  C   -0.188891
     9  H    0.168981
    10  H    0.196106
    11  H    0.188963
    12  H    0.343949
    13  H    0.089612
    14  H    0.103848
    15  H    0.121120
    16  H    0.102681
    17  H    0.100028
 Sum of Mulliken atomic charges =  -0.00000

 Dipole moment (field-independent basis, Debye):
    X=             -4.2844    Y=             -0.5336    Z=              0.5829  Tot=              4.3566
 Quadrupole moment (field-independent basis, Debye-Ang):
   XX=            -37.3698   YY=            -45.1163   ZZ=            -51.8920
   XY=              1.5543   XZ=             -1.0746   YZ=             -0.7290

 Summary of Natural Population Analysis:

                                       Natural Population
                Natural  -----------------------------------------------
    Atom  No    Charge         Core      Valence    Rydberg      Total
 -----------------------------------------------------------------------
      C    1   -0.49474      1.99947     4.48313    0.01215     6.49474
      N    2   -0.43978      1.99939     5.42965    0.01074     7.43978
      C    3    0.14577      1.99899     3.83534    0.01990     5.85423
      C    4   -0.34002      1.99907     4.32083    0.02013     6.34002
      C    5   -0.31549      1.99913     4.29661    0.01975     6.31549
      C    6   -0.15299      1.99910     4.13908    0.01481     6.15299
      C    7   -0.32937      1.99914     4.30993    0.02031     6.32937
      C    8   -0.31472      1.99906     4.29809    0.01757     6.31472
      H    9    0.23924      0.00000     0.76008    0.00067     0.76076
      H   10    0.24762      0.00000     0.75078    0.00160     0.75238
      H   11    0.24187      0.00000     0.75609    0.00204     0.75813
      H   12    0.41231      0.00000     0.58341    0.00428     0.58769
      H   13    0.21152      0.00000     0.78722    0.00126     0.78848
      H   14    0.22371      0.00000     0.77544    0.00086     0.77629
      H   15    0.22629      0.00000     0.77282    0.00088     0.77371
      H   16    0.22256      0.00000     0.77657    0.00086     0.77744
      H   17    0.21624      0.00000     0.78266    0.00110     0.78376
 =======================================================================
   * Total *   -0.00000     15.99336    41.85773    0.14891    58.00000

 Normal termination of Gaussian 09 at Mon Oct  4 22:30:04 2021.
