 Gaussian 09, Revision A.02,

 -----------------------------------
 #p opt b3lyp/6-31G* scf=(xqc,tight)
 -----------------------------------

 ------------------------
 COc1ccc(cc1)B(O)O_conf_0
 ------------------------
 Symbolic Z-matrix:
 Charge =  0 Multiplicity = 1

 SCF Done:  E(RB3LYP) =  -522.738814618     A.U. after   14 cycles
 SCF Done:  E(RB3LYP) =  -522.750599543     A.U. after   13 cycles
 SCF Done:  E(RB3LYP) =  -522.753715239     A.U. after   12 cycles
 SCF Done:  E(RB3LYP) =  -522.757632187     A.U. after   14 cycles
 SCF Done:  E(RB3LYP) =  -522.763833250     A.U. after   12 cycles
 SCF Done:  E(RB3LYP) =  -522.773255055     A.U. after   13 cycles
 SCF Done:  E(RB3LYP) =  -522.780603601     A.U. after   14 cycles
 SCF Done:  E(RB3LYP) =  -522.780487684     A.U. after   13 cycles
 SCF Done:  E(RB3LYP) =  -522.782516434     A.U. after   12 cycles
 SCF Done:  E(RB3LYP) =  -522.782951462     A.U. after   15 cycles
 SCF Done:  E(RB3LYP) =  -522.783009056     A.U. after   11 cycles
 SCF Done:  E(RB3LYP) =  -522.783010530     A.U. after    8 cycles
 Optimization completed.
    -- Stationary point found.
 Normal termination of Gaussian 09 at Sun Oct  3 16:53:41 2021.

 ----------------------------------------------------------------------
 #p freq b3lyp/6-31G* volume NMR pop=NPA density=current Geom=AllCheck
 Guess=Read
 ----------------------------------------------------------------------

 COc1ccc(cc1)B(O)O_conf_0
 ------------------------
 Redundant internal coordinates taken from checkpoint file:
 C7H9BO3_7f1f_conf_0.chk
 Charge =  0 Multiplicity = 1

 SCF Done:  E(RB3LYP) =  -522.783010530     A.U. after    1 cycles

  1  C    Isotropic =   137.5738   Anisotropy =    64.6517

  2  O    Isotropic =   233.0103   Anisotropy =    84.8518

  3  C    Isotropic =    36.5688   Anisotropy =   130.4798

  4  C    Isotropic =    87.4487   Anisotropy =   141.0067

  5  C    Isotropic =    58.6014   Anisotropy =   176.6621

  6  C    Isotropic =    74.0622   Anisotropy =   181.4408

  7  C    Isotropic =    59.2118   Anisotropy =   176.0893

  8  C    Isotropic =    79.4089   Anisotropy =   132.9803

  9  B    Isotropic =    85.4623   Anisotropy =    17.4558

 10  O    Isotropic =   228.6045   Anisotropy =    59.6413

 11  O    Isotropic =   227.9956   Anisotropy =    59.2879

 12  H    Isotropic =    28.3225   Anisotropy =     7.9009

 13  H    Isotropic =    28.6225   Anisotropy =     7.9411

 14  H    Isotropic =    28.6179   Anisotropy =     7.9488

 15  H    Isotropic =    25.8133   Anisotropy =     7.4906

 16  H    Isotropic =    24.2814   Anisotropy =     8.6413

 17  H    Isotropic =    24.3066   Anisotropy =     8.1892

 18  H    Isotropic =    25.5347   Anisotropy =     6.0087

 19  H    Isotropic =    29.6342   Anisotropy =    13.0934

 20  H    Isotropic =    29.6189   Anisotropy =    13.0890

  Exact polarizability: 146.011   1.624  93.629   0.006   0.007  42.162
 Approx polarizability: 202.405  -1.682 158.469   0.031   0.008  62.487

                     1                      2                      3
                     A                      A                      A
 Frequencies --    52.3147                70.9211               121.2423
 Red. masses --     5.6531                 3.7961                 4.4215
 Frc consts  --     0.0091                 0.0112                 0.0383
 IR Inten    --     1.6103                 3.9429                 0.0307

                     4                      5                      6
                     A                      A                      A
 Frequencies --   131.9173               230.0440               250.5135
 Red. masses --     5.1177                 1.2768                 3.5803
 Frc consts  --     0.0525                 0.0398                 0.1324
 IR Inten    --     4.0092                 2.7322                 3.5579

                     7                      8                      9
                     A                      A                      A
 Frequencies --   294.4666               306.7066               375.5502
 Red. masses --     2.7588                 6.8528                 1.1042
 Frc consts  --     0.1409                 0.3798                 0.0918
 IR Inten    --    12.1660                 1.1162                 0.0045

                    10                     11                     12
                     A                      A                      A
 Frequencies --   422.7652               427.4209               478.3427
 Red. masses --     6.2073                 2.6710                 4.1185
 Frc consts  --     0.6537                 0.2875                 0.5552
 IR Inten    --     4.8170                 0.0589                15.3834

                    13                     14                     15
                     A                      A                      A
 Frequencies --   494.1859               541.7909               550.0389
 Red. masses --     1.7631                 3.7451                 1.6792
 Frc consts  --     0.2537                 0.6477                 0.2993
 IR Inten    --   109.1052                55.1647                88.3305

                    16                     17                     18
                     A                      A                      A
 Frequencies --   644.0918               647.8759               674.6056
 Red. masses --     4.9231                 6.9078                 4.5188
 Frc consts  --     1.2033                 1.7083                 1.2116
 IR Inten    --    75.1216                 1.6271                 0.6837

                    19                     20                     21
                     A                      A                      A
 Frequencies --   749.2980               822.2591               832.6373
 Red. masses --     4.5849                 5.7795                 1.3164
 Frc consts  --     1.5167                 2.3023                 0.5377
 IR Inten    --     5.2495                 7.7935                10.4821

                    22                     23                     24
                     A                      A                      A
 Frequencies --   852.9301               946.6677               971.6281
 Red. masses --     1.5544                 1.1021                 1.3123
 Frc consts  --     0.6663                 0.5819                 0.7299
 IR Inten    --    33.1202               174.7210                 0.0800

                    25                     26                     27
                     A                      A                      A
 Frequencies --   984.2311              1009.1624              1036.8192
 Red. masses --     1.3057                 3.2986                 2.5604
 Frc consts  --     0.7452                 1.9793                 1.6217
 IR Inten    --     0.0054               201.0956                34.1669

                    28                     29                     30
                     A                      A                      A
 Frequencies --  1078.3836              1137.3690              1141.6393
 Red. masses --     6.0600                 1.8774                 1.4983
 Frc consts  --     4.1521                 1.4309                 1.1506
 IR Inten    --    36.5064                31.9099                18.5361

                    31                     32                     33
                     A                      A                      A
 Frequencies --  1184.5325              1214.4584              1217.6454
 Red. masses --     1.2712                 1.2049                 1.3619
 Frc consts  --     1.0509                 1.0470                 1.1897
 IR Inten    --     0.7120                39.0373                20.8109

                    34                     35                     36
                     A                      A                      A
 Frequencies --  1298.6672              1334.6802              1351.1190
 Red. masses --     4.6461                 2.4671                 2.0039
 Frc consts  --     4.6167                 2.5894                 2.1553
 IR Inten    --   281.0634                33.8079                42.7538

                    37                     38                     39
                     A                      A                      A
 Frequencies --  1394.2278              1397.7496              1458.7729
 Red. masses --     4.4035                 4.9015                 3.1674
 Frc consts  --     5.0433                 5.6421                 3.9713
 IR Inten    --   250.1091               355.4210                40.9975

                    40                     41                     42
                     A                      A                      A
 Frequencies --  1499.0319              1520.1318              1534.3388
 Red. masses --     1.1966                 1.0484                 1.0591
 Frc consts  --     1.5842                 1.4274                 1.4690
 IR Inten    --     5.6248                 5.0933                30.4112

                    43                     44                     45
                     A                      A                      A
 Frequencies --  1568.5418              1619.8976              1666.8636
 Red. masses --     2.5686                 6.4225                 5.5506
 Frc consts  --     3.7234                 9.9295                 9.0863
 IR Inten    --    17.1028                28.3592               196.7289

                    46                     47                     48
                     A                      A                      A
 Frequencies --  3025.4845              3084.3357              3155.5495
 Red. masses --     1.0346                 1.1067                 1.0998
 Frc consts  --     5.5797                 6.2029                 6.4524
 IR Inten    --    57.4604                44.4062                28.6707

                    49                     50                     51
                     A                      A                      A
 Frequencies --  3195.6331              3196.2176              3213.5419
 Red. masses --     1.0877                 1.0880                 1.0943
 Frc consts  --     6.5443                 6.5484                 6.6582
 IR Inten    --     8.3413                 6.1115                12.9141

                    52                     53                     54
                     A                      A                      A
 Frequencies --  3223.7926              3783.9052              3787.8315
 Red. masses --     1.0917                 1.0671                 1.0649
 Frc consts  --     6.6846                 9.0020                 9.0024
 IR Inten    --    14.5858                 5.7075                40.8749

 - Thermochemistry -
 -------------------
 Temperature   298.150 Kelvin.  Pressure   1.00000 Atm.
 Atom     1 has atomic number  6 and mass  12.00000

 Molecular mass:   152.06447 amu.
 Principal axes and moments of inertia in atomic units:
                           1         2         3
     Eigenvalues --   549.689133351.753203889.92581
           X            0.99993   0.01208  -0.00003
           Y           -0.01208   0.99993  -0.00001
           Z            0.00003   0.00001   1.00000
 This molecule is an asymmetric top.
 Rotational symmetry number  1.
 Warning -- assumption of classical behavior for rotation
           may cause significant error
 Rotational temperatures (Kelvin)      0.15757     0.02584     0.02227
 Rotational constants (GHZ):           3.28320     0.53845     0.46395
 Zero-point vibrational energy     413936.4 (Joules/Mol)
                                   98.93318 (Kcal/Mol)
 Warning -- explicit consideration of  15 degrees of freedom as
           vibrations may cause significant error
 Vibrational temperatures:     75.27   102.04   174.44   189.80   330.98
          (Kelvin)            360.43   423.67   441.28   540.33   608.26
                              614.96   688.23   711.02   779.52   791.38
                              926.70   932.15   970.61  1078.07  1183.05
                             1197.98  1227.17  1362.04  1397.95  1416.09
                             1451.96  1491.75  1551.55  1636.42  1642.56
                             1704.28  1747.33  1751.92  1868.49  1920.30
                             1943.96  2005.98  2011.05  2098.85  2156.77
                             2187.13  2207.57  2256.78  2330.67  2398.24
                             4352.99  4437.67  4540.13  4597.80  4598.64
                             4623.56  4638.31  5444.19  5449.84

 Zero-point correction=                           0.157660 (Hartree/Particle)
 Thermal correction to Energy=                    0.168166
 Thermal correction to Enthalpy=                  0.169110
 Thermal correction to Gibbs Free Energy=         0.121238
 Sum of electronic and zero-point Energies=           -522.625350
 Sum of electronic and thermal Energies=              -522.614845
 Sum of electronic and thermal Enthalpies=            -522.613900
 Sum of electronic and thermal Free Energies=         -522.661773

                     E (Thermal)             CV                S
                      KCal/Mol        Cal/Mol-Kelvin    Cal/Mol-Kelvin
 Total                  105.526             39.559            100.755
 Electronic               0.000              0.000              0.000
 Translational            0.889              2.981             40.967
 Rotational               0.889              2.981             30.350
 Vibrational            103.748             33.597             29.437
 Vibration     1          0.596              1.977              4.728
 Vibration     2          0.598              1.968              4.128
 Vibration     3          0.609              1.931              3.080
 Vibration     4          0.612              1.921              2.918
 Vibration     5          0.652              1.795              1.879
 Vibration     6          0.663              1.762              1.727
 Vibration     7          0.689              1.684              1.448
 Vibration     8          0.697              1.661              1.380
 Vibration     9          0.746              1.522              1.057
 Vibration    10          0.785              1.421              0.883
 Vibration    11          0.789              1.411              0.867
 Vibration    12          0.835              1.298              0.715
 Vibration    13          0.850              1.263              0.673
 Vibration    14          0.897              1.158              0.561
 Vibration    15          0.905              1.140              0.544

 Normal termination of Gaussian 09 at Sun Oct  3 17:45:34 2021.
 Gaussian 09:  AM64L-G09RevA.02 11-Jun-2009

 ----------------------------------------------------------------------
 #p TD(NStates=10, Root=1) b3lyp/6-31G* volume pop=NPA density=current
 Geom=AllCheck Guess=Read
 ----------------------------------------------------------------------

 COc1ccc(cc1)B(O)O_conf_0
 ------------------------
 Redundant internal coordinates taken from checkpoint file:
 C7H9BO3_7f1f_conf_0.chk
 Charge =  0 Multiplicity = 1

                         Standard orientation:
 ---------------------------------------------------------------------
 Center     Atomic      Atomic             Coordinates (Angstroms)
 Number     Number       Type             X           Y           Z
 ---------------------------------------------------------------------
      1          6           0       -3.951732   -0.601405    0.002033
      2          8           0       -3.075560    0.513603   -0.001553
      3          6           0       -1.730897    0.280762   -0.000865
      4          6           0       -1.143771   -0.991085   -0.000772
      5          6           0        0.247544   -1.101505   -0.000305
      6          6           0        1.085656    0.023685    0.000076
      7          6           0        0.464315    1.289412   -0.000080
      8          6           0       -0.916322    1.424059   -0.000471
      9          5           0        2.635022   -0.120115    0.000351
     10          8           0        3.174515   -1.388020   -0.000497
     11          8           0        3.396553    1.027830    0.001161
     12          1           0       -4.962266   -0.188280    0.003917
     13          1           0       -3.812498   -1.222445    0.896871
     14          1           0       -3.816910   -1.224803   -0.891869
     15          1           0       -1.753251   -1.887905   -0.001132
     16          1           0        0.693516   -2.092562   -0.000272
     17          1           0        1.083646    2.182254    0.000223
     18          1           0       -1.393646    2.399405   -0.000444
     19          1           0        4.141381   -1.413875   -0.000278
     20          1           0        4.352097    0.877941    0.000652
 ---------------------------------------------------------------------

 SCF Done:  E(RB3LYP) =  -522.783010530     A.U. after    1 cycles

 Excitation energies and oscillator strengths:

 Excited State   1:      Singlet-A      5.1030 eV  242.96 nm  f=0.0043  <S**2>=0.000
      39 -> 41        -0.44833
      40 -> 42         0.54260
 This state for optimization and/or second-order correction.
 Total Energy, E(TD-HF/TD-KS) =  -522.595478895
 Copying the excited state density for this state as the 1-particle RhoCI density.

 Excited State   2:      Singlet-A      5.3598 eV  231.32 nm  f=0.3455  <S**2>=0.000
      39 -> 42         0.18820
      40 -> 41         0.67732

 Excited State   3:      Singlet-A      6.2693 eV  197.77 nm  f=0.0000  <S**2>=0.000
      40 -> 43         0.70428

 Excited State   4:      Singlet-A      6.3530 eV  195.16 nm  f=0.2145  <S**2>=0.000
      38 -> 42         0.13355
      39 -> 41         0.52760
      40 -> 42         0.43392

 Excited State   5:      Singlet-A      6.9065 eV  179.52 nm  f=0.6074  <S**2>=0.000
      39 -> 42         0.66460
      40 -> 41        -0.17564
      40 -> 45        -0.10264

 Excited State   6:      Singlet-A      7.0564 eV  175.70 nm  f=0.0000  <S**2>=0.000
      39 -> 43         0.70536

 Excited State   7:      Singlet-A      7.2081 eV  172.01 nm  f=0.0002  <S**2>=0.000
      37 -> 41         0.69488

 Excited State   8:      Singlet-A      7.4416 eV  166.61 nm  f=0.0037  <S**2>=0.000
      35 -> 41         0.70034

 Excited State   9:      Singlet-A      7.6148 eV  162.82 nm  f=0.0027  <S**2>=0.000
      40 -> 44         0.64481
      40 -> 46         0.14789
      40 -> 47        -0.23062

 Excited State  10:      Singlet-A      7.6308 eV  162.48 nm  f=0.0007  <S**2>=0.000
      33 -> 42        -0.11778
      37 -> 42         0.68628

 The electronic state is 1-A.
 Alpha  occ. eigenvalues --  -19.17353 -19.15743 -19.15733 -10.24100 -10.23743
 Alpha  occ. eigenvalues --  -10.17948 -10.17750 -10.17717 -10.17260 -10.15241
 Alpha  occ. eigenvalues --   -6.77785  -1.05915  -1.03309  -0.99890  -0.83516
 Alpha  occ. eigenvalues --   -0.74587  -0.73217  -0.68725  -0.59911  -0.58917
 Alpha  occ. eigenvalues --   -0.55298  -0.53695  -0.52349  -0.46588  -0.46395
 Alpha  occ. eigenvalues --   -0.45245  -0.43656  -0.41528  -0.40550  -0.40038
 Alpha  occ. eigenvalues --   -0.38374  -0.36447  -0.34930  -0.33591  -0.32198
 Alpha  occ. eigenvalues --   -0.31529  -0.31329  -0.30753  -0.23907  -0.21109
 Alpha virt. eigenvalues --   -0.00416   0.01293   0.04310   0.10296   0.10614
 Alpha virt. eigenvalues --    0.10826   0.11672   0.14640   0.15879   0.16421
 Alpha virt. eigenvalues --    0.17054   0.19214   0.19842   0.21629   0.22511

 Mulliken atomic charges:
              1
     1  C   -0.220776
     2  O   -0.467343
     3  C    0.345470
     4  C   -0.178701
     5  C   -0.224682
     6  C    0.107510
     7  C   -0.216589
     8  C   -0.166082
     9  B    0.335290
    10  O   -0.565552
    11  O   -0.564375
    12  H    0.173482
    13  H    0.162598
    14  H    0.162583
    15  H    0.127710
    16  H    0.141440
    17  H    0.141792
    18  H    0.132667
    19  H    0.386795
    20  H    0.386760
 Sum of Mulliken atomic charges =  -0.00000

 Dipole moment (field-independent basis, Debye):
    X=              0.5236    Y=             -1.4470    Z=              0.0036  Tot=              1.5388
 Quadrupole moment (field-independent basis, Debye-Ang):
   XX=            -33.9500   YY=            -63.6138   ZZ=            -65.7425
   XY=              3.0535   XZ=             -0.0168   YZ=             -0.0023

 Summary of Natural Population Analysis:

                                       Natural Population
                Natural  -----------------------------------------------
    Atom  No    Charge         Core      Valence    Rydberg      Total
 -----------------------------------------------------------------------
      C    1   -0.32170      1.99943     4.30817    0.01411     6.32170
      O    2   -0.46311      1.99975     6.45149    0.01187     8.46311
      C    3    0.29837      1.99883     3.67931    0.02348     5.70163
      C    4   -0.30216      1.99905     4.28658    0.01653     6.30216
      C    5   -0.21067      1.99915     4.19286    0.01865     6.21067
      C    6   -0.36434      1.99898     4.34666    0.01870     6.36434
      C    7   -0.20824      1.99915     4.19116    0.01793     6.20824
      C    8   -0.27763      1.99906     4.25923    0.01933     6.27763
      B    9    1.08310      1.99922     1.89175    0.02593     3.91690
      O   10   -0.89086      1.99975     6.88143    0.00968     8.89086
      O   11   -0.88993      1.99975     6.88048    0.00969     8.88993
      H   12    0.22965      0.00000     0.76981    0.00054     0.77035
      H   13    0.21014      0.00000     0.78769    0.00217     0.78986
      H   14    0.21012      0.00000     0.78772    0.00216     0.78988
      H   15    0.22751      0.00000     0.77151    0.00098     0.77249
      H   16    0.23668      0.00000     0.76208    0.00123     0.76332
      H   17    0.23738      0.00000     0.76142    0.00119     0.76262
      H   18    0.23686      0.00000     0.76187    0.00127     0.76314
      H   19    0.47944      0.00000     0.51843    0.00213     0.52056
      H   20    0.47937      0.00000     0.51851    0.00213     0.52063
 =======================================================================
   * Total *   -0.00000     21.99213    57.80816    0.19971    80.00000

 Normal termination of Gaussian 09 at Sun Oct  3 23:27:47 2021.
