 Gaussian 09, Revision A.02,

 -----------------------------------
 #p opt b3lyp/6-31G* scf=(xqc,tight)
 -----------------------------------

 -----------------------
 OB(c1ccc(cc1)C)O_conf_0
 -----------------------
 Symbolic Z-matrix:
 Charge =  0 Multiplicity = 1

 SCF Done:  E(RB3LYP) =  -447.533206716     A.U. after   14 cycles
 SCF Done:  E(RB3LYP) =  -447.543656422     A.U. after   13 cycles
 SCF Done:  E(RB3LYP) =  -447.550150272     A.U. after   13 cycles
 SCF Done:  E(RB3LYP) =  -447.557567663     A.U. after   13 cycles
 SCF Done:  E(RB3LYP) =  -447.561613174     A.U. after   12 cycles
 SCF Done:  E(RB3LYP) =  -447.567375764     A.U. after   13 cycles
 SCF Done:  E(RB3LYP) =  -447.571578841     A.U. after   15 cycles
 SCF Done:  E(RB3LYP) =  -447.573071781     A.U. after   12 cycles
 SCF Done:  E(RB3LYP) =  -447.573222021     A.U. after   11 cycles
 SCF Done:  E(RB3LYP) =  -447.573230654     A.U. after   15 cycles
 SCF Done:  E(RB3LYP) =  -447.573235180     A.U. after   15 cycles
 SCF Done:  E(RB3LYP) =  -447.573235532     A.U. after    7 cycles
 SCF Done:  E(RB3LYP) =  -447.573235653     A.U. after   15 cycles
 SCF Done:  E(RB3LYP) =  -447.573235771     A.U. after    7 cycles
 Optimization completed.
    -- Stationary point found.
 Normal termination of Gaussian 09 at Sun Oct  3 16:17:17 2021.

 ----------------------------------------------------------------------
 #p freq b3lyp/6-31G* volume NMR pop=NPA density=current Geom=AllCheck
 Guess=Read
 ----------------------------------------------------------------------

 OB(c1ccc(cc1)C)O_conf_0
 -----------------------
 Redundant internal coordinates taken from checkpoint file:
 C7H9BO2_64b1_conf_0.chk
 Charge =  0 Multiplicity = 1

 SCF Done:  E(RB3LYP) =  -447.573235771     A.U. after    1 cycles

  1  O    Isotropic =   217.2472   Anisotropy =    53.2510

  2  B    Isotropic =    84.8520   Anisotropy =    17.1048

  3  C    Isotropic =    67.2253   Anisotropy =   183.7140

  4  C    Isotropic =    58.1299   Anisotropy =   177.9677

  5  C    Isotropic =    71.8894   Anisotropy =   161.0236

  6  C    Isotropic =    65.5534   Anisotropy =   165.7179

  7  C    Isotropic =    66.1618   Anisotropy =   139.0377

  8  C    Isotropic =    49.3765   Anisotropy =   191.3493

  9  C    Isotropic =   163.9107   Anisotropy =    27.9814

 10  O    Isotropic =   222.4440   Anisotropy =    64.3250

 11  H    Isotropic =    29.2333   Anisotropy =    12.5588

 12  H    Isotropic =    24.0705   Anisotropy =     9.1410

 13  H    Isotropic =    25.1483   Anisotropy =     4.5157

 14  H    Isotropic =    25.0357   Anisotropy =     4.5750

 15  H    Isotropic =    25.2031   Anisotropy =     6.9011

 16  H    Isotropic =    29.3232   Anisotropy =     6.1042

 17  H    Isotropic =    29.3234   Anisotropy =     6.1083

 18  H    Isotropic =    30.4008   Anisotropy =     7.1038

 19  H    Isotropic =    29.5978   Anisotropy =    12.6846

  Exact polarizability: 119.322  -2.758 101.776  -0.002   0.005  39.364
 Approx polarizability: 178.633  -3.340 162.190  -0.005   0.008  59.656

                     1                      2                      3
                     A                      A                      A
 Frequencies --    31.9042               122.0873               169.3986
 Red. masses --     6.7569                 3.6764                 1.0745
 Frc consts  --     0.0041                 0.0323                 0.0182
 IR Inten    --     0.1122                 2.7424                 0.7446

                     4                      5                      6
                     A                      A                      A
 Frequencies --   198.4131               225.2230               323.9670
 Red. masses --     4.9068                 2.8370                 4.1254
 Frc consts  --     0.1138                 0.0848                 0.2551
 IR Inten    --     2.8073                 7.7143                 3.2590

                     7                      8                      9
                     A                      A                      A
 Frequencies --   342.3894               385.1864               420.7070
 Red. masses --     5.8008                 1.0813                 2.6056
 Frc consts  --     0.4007                 0.0945                 0.2717
 IR Inten    --     3.7930                 5.7171                17.1672

                    10                     11                     12
                     A                      A                      A
 Frequencies --   463.6855               490.9444               537.7027
 Red. masses --     3.8515                 2.6223                 4.4185
 Frc consts  --     0.4879                 0.3724                 0.7527
 IR Inten    --     4.7636                 3.2998                23.8658

                    13                     14                     15
                     A                      A                      A
 Frequencies --   551.6045               587.1049               651.8176
 Red. masses --     1.4043                 4.3262                 5.7942
 Frc consts  --     0.2518                 0.8786                 1.4504
 IR Inten    --   175.9162                26.1138                64.9610

                    16                     17                     18
                     A                      A                      A
 Frequencies --   705.8482               749.0811               782.4197
 Red. masses --     4.9917                 2.2032                 1.6142
 Frc consts  --     1.4653                 0.7284                 0.5822
 IR Inten    --     2.2184                16.8654                15.3779

                    19                     20                     21
                     A                      A                      A
 Frequencies --   822.4176               891.1426               946.8269
 Red. masses --     4.8820                 1.2949                 1.1029
 Frc consts  --     1.9455                 0.6059                 0.5825
 IR Inten    --     0.8320                 0.0198               164.1386

                    22                     23                     24
                     A                      A                      A
 Frequencies --   966.3403               996.4715              1013.1442
 Red. masses --     1.3508                 1.2813                 3.2734
 Frc consts  --     0.7432                 0.7496                 1.9797
 IR Inten    --     0.6454                 0.0200               170.8022

                    25                     26                     27
                     A                      A                      A
 Frequencies --  1027.1834              1076.2744              1080.9286
 Red. masses --     1.5572                 1.5426                 2.4478
 Frc consts  --     0.9680                 1.0528                 1.6851
 IR Inten    --     1.5950                 4.0173                 3.2901

                    28                     29                     30
                     A                      A                      A
 Frequencies --  1109.7805              1164.7384              1198.5833
 Red. masses --     2.2652                 1.6016                 1.1212
 Frc consts  --     1.6437                 1.2801                 0.9490
 IR Inten    --    24.6853                 6.2477                 1.0701

                    31                     32                     33
                     A                      A                      A
 Frequencies --  1232.7338              1310.1804              1332.6177
 Red. masses --     2.4924                 1.8115                 4.1508
 Frc consts  --     2.2316                 1.8321                 4.3430
 IR Inten    --     0.8978                10.2987                24.6011

                    34                     35                     36
                     A                      A                      A
 Frequencies --  1383.9496              1390.0316              1446.5642
 Red. masses --     4.5981                 3.8126                 1.2309
 Frc consts  --     5.1889                 4.3404                 1.5176
 IR Inten    --   213.9686               243.8447                 0.3832

                    37                     38                     39
                     A                      A                      A
 Frequencies --  1488.1629              1513.6195              1518.1672
 Red. masses --     2.1253                 1.0450                 1.2560
 Frc consts  --     2.7731                 1.4106                 1.7056
 IR Inten    --    56.1612                 4.8068                35.9891

                    40                     41                     42
                     A                      A                      A
 Frequencies --  1536.2186              1624.8910              1659.3792
 Red. masses --     2.0605                 5.3340                 5.3740
 Frc consts  --     2.8650                 8.2976                 8.7184
 IR Inten    --     7.5470                10.1544                28.2785

                    43                     44                     45
                     A                      A                      A
 Frequencies --  3057.5340              3119.8708              3125.6848
 Red. masses --     1.0358                 1.1001                 1.1033
 Frc consts  --     5.7053                 6.3089                 6.3511
 IR Inten    --    26.0650                14.7361                22.7440

                    46                     47                     48
                     A                      A                      A
 Frequencies --  3171.4952              3184.1786              3197.5771
 Red. masses --     1.0857                 1.0891                 1.0937
 Frc consts  --     6.4341                 6.5057                 6.5888
 IR Inten    --     6.4832                20.4532                31.5731

                    49                     50                     51
                     A                      A                      A
 Frequencies --  3211.2839              3771.3442              3787.4696
 Red. masses --     1.0944                 1.0662                 1.0658
 Frc consts  --     6.6495                 8.9350                 9.0077
 IR Inten    --    18.6120                14.5801                27.9019

 - Thermochemistry -
 -------------------
 Temperature   298.150 Kelvin.  Pressure   1.00000 Atm.
 Atom     1 has atomic number  8 and mass  15.99491

 Molecular mass:   136.06956 amu.
 Principal axes and moments of inertia in atomic units:
                           1         2         3
     Eigenvalues --   840.367611618.691572448.02402
           X            0.99998  -0.00661  -0.00000
           Y            0.00661   0.99998   0.00002
           Z            0.00000  -0.00002   1.00000
 This molecule is an asymmetric top.
 Rotational symmetry number  1.
 Warning -- assumption of classical behavior for rotation
           may cause significant error
 Rotational temperatures (Kelvin)      0.10307     0.05351     0.03538
 Rotational constants (GHZ):           2.14756     1.11494     0.73722
 Zero-point vibrational energy     401324.8 (Joules/Mol)
                                   95.91893 (Kcal/Mol)
 Warning -- explicit consideration of  14 degrees of freedom as
           vibrations may cause significant error
 Vibrational temperatures:     45.90   175.66   243.73   285.47   324.05
          (Kelvin)            466.12   492.62   554.20   605.30   667.14
                              706.36   773.63   793.63   844.71   937.82
                             1015.56  1077.76  1125.73  1183.27  1282.15
                             1362.27  1390.35  1433.70  1457.69  1477.89
                             1548.52  1555.21  1596.72  1675.80  1724.49
                             1773.63  1885.06  1917.34  1991.19  1999.94
                             2081.28  2141.13  2177.76  2184.30  2210.27
                             2337.85  2387.47  4399.10  4488.79  4497.16
                             4563.07  4581.32  4600.59  4620.32  5426.12
                             5449.32

 Zero-point correction=                           0.152857 (Hartree/Particle)
 Thermal correction to Energy=                    0.162301
 Thermal correction to Enthalpy=                  0.163245
 Thermal correction to Gibbs Free Energy=         0.117930
 Sum of electronic and zero-point Energies=           -447.420379
 Sum of electronic and thermal Energies=              -447.410935
 Sum of electronic and thermal Enthalpies=            -447.409991
 Sum of electronic and thermal Free Energies=         -447.455306

                     E (Thermal)             CV                S
                      KCal/Mol        Cal/Mol-Kelvin    Cal/Mol-Kelvin
 Total                  101.845             36.196             95.375
 Electronic               0.000              0.000              0.000
 Translational            0.889              2.981             40.636
 Rotational               0.889              2.981             29.589
 Vibrational            100.068             30.235             25.150
 Vibration     1          0.594              1.983              5.707
 Vibration     2          0.610              1.931              3.067
 Vibration     3          0.625              1.880              2.442
 Vibration     4          0.637              1.842              2.148
 Vibration     5          0.650              1.803              1.917
 Vibration     6          0.709              1.628              1.290
 Vibration     7          0.722              1.591              1.201
 Vibration     8          0.754              1.502              1.019
 Vibration     9          0.783              1.425              0.890
 Vibration    10          0.821              1.331              0.755
 Vibration    11          0.847              1.270              0.681
 Vibration    12          0.893              1.167              0.570
 Vibration    13          0.907              1.136              0.541
 Vibration    14          0.944              1.059              0.472

 Optimization completed.
    -- Stationary point found.
 Normal termination of Gaussian 09 at Sun Oct  3 16:55:19 2021.
 Gaussian 09:  AM64L-G09RevA.02 11-Jun-2009

 ----------------------------------------------------------------------
 #p TD(NStates=10, Root=1) b3lyp/6-31G* volume pop=NPA density=current
 Geom=AllCheck Guess=Read
 ----------------------------------------------------------------------

 OB(c1ccc(cc1)C)O_conf_0
 -----------------------
 Redundant internal coordinates taken from checkpoint file:
 C7H9BO2_64b1_conf_0.chk
 Charge =  0 Multiplicity = 1

                         Standard orientation:
 ---------------------------------------------------------------------
 Center     Atomic      Atomic             Coordinates (Angstroms)
 Number     Number       Type             X           Y           Z
 ---------------------------------------------------------------------
      1          8           0       -2.478936    0.829606   -0.001111
      2          5           0       -1.718726   -0.318526    0.000027
      3          6           0       -0.153851   -0.239195    0.000061
      4          6           0        0.546032   -1.461669   -0.000223
      5          6           0        1.937702   -1.521182   -0.000336
      6          6           0        2.667572   -0.333885   -0.000143
      7          6           0        1.997532    0.889332    0.000159
      8          6           0        0.598412    0.964453    0.000237
      9          6           0       -0.044185    2.335045    0.000423
     10          8           0       -2.285412   -1.575564    0.000882
     11          1           0       -3.433991    0.671192   -0.000693
     12          1           0       -0.025702   -2.384991   -0.000309
     13          1           0        2.445850   -2.482065   -0.000598
     14          1           0        3.754811   -0.355532   -0.000223
     15          1           0        2.573392    1.812250    0.000343
     16          1           0       -0.685603    2.481892    0.875556
     17          1           0       -0.684379    2.482664   -0.875469
     18          1           0        0.721288    3.118033    0.001356
     19          1           0       -3.252528   -1.580528    0.000665
 ---------------------------------------------------------------------

 SCF Done:  E(RB3LYP) =  -447.573235771     A.U. after    1 cycles

 Excitation energies and oscillator strengths:

 Excited State   1:      Singlet-A      5.0154 eV  247.21 nm  f=0.0274  <S**2>=0.000
      35 -> 37         0.20649
      35 -> 38         0.29487
      36 -> 37         0.59097
      36 -> 38        -0.14488
 This state for optimization and/or second-order correction.
 Total Energy, E(TD-HF/TD-KS) =  -447.388923338
 Copying the excited state density for this state as the 1-particle RhoCI density.

 Excited State   2:      Singlet-A      5.6690 eV  218.71 nm  f=0.1346  <S**2>=0.000
      35 -> 37         0.59081
      36 -> 37        -0.25622
      36 -> 38        -0.28255

 Excited State   3:      Singlet-A      6.6249 eV  187.15 nm  f=0.0000  <S**2>=0.000
      35 -> 39        -0.15746
      36 -> 39         0.68398

 Excited State   4:      Singlet-A      6.7168 eV  184.59 nm  f=0.4242  <S**2>=0.000
      35 -> 37        -0.26025
      35 -> 38         0.43951
      36 -> 37        -0.22722
      36 -> 38        -0.39377
      36 -> 40        -0.13110

 Excited State   5:      Singlet-A      6.7548 eV  183.55 nm  f=0.0045  <S**2>=0.000
      34 -> 37         0.65866
      35 -> 39        -0.21563
      36 -> 39        -0.12386

 Excited State   6:      Singlet-A      6.8209 eV  181.77 nm  f=0.4728  <S**2>=0.000
      35 -> 37         0.17555
      35 -> 38         0.42981
      36 -> 37        -0.15854
      36 -> 38         0.47452
      36 -> 40        -0.10774

 Excited State   7:      Singlet-A      6.8226 eV  181.73 nm  f=0.0032  <S**2>=0.000
      34 -> 37         0.23592
      35 -> 39         0.65092
      36 -> 39         0.12460

 Excited State   8:      Singlet-A      7.0656 eV  175.47 nm  f=0.0001  <S**2>=0.000
      32 -> 37         0.69864

 Excited State   9:      Singlet-A      7.4916 eV  165.50 nm  f=0.0001  <S**2>=0.000
      34 -> 38         0.69765

 Excited State  10:      Singlet-A      7.5917 eV  163.31 nm  f=0.0391  <S**2>=0.000
      33 -> 37         0.69657

 The electronic state is 1-A.
 Alpha  occ. eigenvalues --  -19.16262 -19.16051 -10.18807 -10.18067 -10.17499
 Alpha  occ. eigenvalues --  -10.17420 -10.17354 -10.16519 -10.15920  -6.78351
 Alpha  occ. eigenvalues --   -1.03860  -1.00276  -0.83777  -0.75484  -0.72892
 Alpha  occ. eigenvalues --   -0.66822  -0.59903  -0.57872  -0.54967  -0.53693
 Alpha  occ. eigenvalues --   -0.48640  -0.44046  -0.43329  -0.42906  -0.40556
 Alpha  occ. eigenvalues --   -0.39324  -0.38053  -0.38012  -0.36730  -0.33822
 Alpha  occ. eigenvalues --   -0.33779  -0.32210  -0.31865  -0.30750  -0.23697
 Alpha  occ. eigenvalues --   -0.22809
 Alpha virt. eigenvalues --   -0.01540   0.01710   0.03892   0.09871   0.10488
 Alpha virt. eigenvalues --    0.11247   0.14071   0.15354   0.17289   0.18279
 Alpha virt. eigenvalues --    0.19187   0.21277   0.21816   0.22610   0.24917

 Mulliken atomic charges:
              1
     1  O   -0.580611
     2  B    0.291386
     3  C    0.066378
     4  C   -0.202080
     5  C   -0.100468
     6  C   -0.153437
     7  C   -0.151676
     8  C    0.086666
     9  C   -0.504990
    10  O   -0.576437
    11  H    0.380685
    12  H    0.157091
    13  H    0.140088
    14  H    0.125086
    15  H    0.133620
    16  H    0.182830
    17  H    0.182864
    18  H    0.141585
    19  H    0.381421
 Sum of Mulliken atomic charges =  -0.00000

 Dipole moment (field-independent basis, Debye):
    X=             -1.1877    Y=              0.3304    Z=              0.0002  Tot=              1.2328
 Quadrupole moment (field-independent basis, Debye-Ang):
   XX=            -41.3886   YY=            -55.9739   ZZ=            -60.6134
   XY=              1.0561   XZ=             -0.0019   YZ=              0.0051

 Summary of Natural Population Analysis:

                                       Natural Population
                Natural  -----------------------------------------------
    Atom  No    Charge         Core      Valence    Rydberg      Total
 -----------------------------------------------------------------------
      O    1   -0.89948      1.99975     6.88986    0.00988     8.89948
      B    2    1.02080      1.99926     1.95319    0.02675     3.97920
      C    3   -0.42481      1.99893     4.40618    0.01970     6.42481
      C    4   -0.16839      1.99915     4.15235    0.01689     6.16839
      C    5   -0.16092      1.99911     4.14556    0.01624     6.16092
      C    6   -0.30320      1.99915     4.28598    0.01807     6.30320
      C    7   -0.16962      1.99906     4.15512    0.01544     6.16962
      C    8    0.06610      1.99907     3.91889    0.01595     5.93390
      C    9   -0.69758      1.99940     4.69029    0.00789     6.69758
      O   10   -0.90016      1.99975     6.89071    0.00971     8.90016
      H   11    0.47552      0.00000     0.52216    0.00232     0.52448
      H   12    0.24334      0.00000     0.75525    0.00141     0.75666
      H   13    0.23063      0.00000     0.76846    0.00091     0.76937
      H   14    0.23081      0.00000     0.76832    0.00087     0.76919
      H   15    0.22679      0.00000     0.77209    0.00112     0.77321
      H   16    0.26297      0.00000     0.73539    0.00164     0.73703
      H   17    0.26299      0.00000     0.73537    0.00164     0.73701
      H   18    0.22751      0.00000     0.77151    0.00097     0.77249
      H   19    0.47669      0.00000     0.52115    0.00216     0.52331
 =======================================================================
   * Total *   -0.00000     19.99263    51.83782    0.16955    72.00000

 Normal termination of Gaussian 09 at Sun Oct  3 20:18:32 2021.
