 Gaussian 09, Revision A.02,

 -----------------------------------
 #p opt b3lyp/6-31G* scf=(xqc,tight)
 -----------------------------------

 -----------------------
 Cn1ccc(c1)C(=O)C_conf_0
 -----------------------
 Symbolic Z-matrix:
 Charge =  0 Multiplicity = 1

 SCF Done:  E(RB3LYP) =  -402.128617427     A.U. after   15 cycles
 SCF Done:  E(RB3LYP) =  -402.130261511     A.U. after   16 cycles
 SCF Done:  E(RB3LYP) =  -402.130344069     A.U. after   13 cycles
 SCF Done:  E(RB3LYP) =  -402.130556384     A.U. after   11 cycles
 SCF Done:  E(RB3LYP) =  -402.130666936     A.U. after   12 cycles
 SCF Done:  E(RB3LYP) =  -402.130750762     A.U. after   12 cycles
 SCF Done:  E(RB3LYP) =  -402.130832654     A.U. after   11 cycles
 SCF Done:  E(RB3LYP) =  -402.130859010     A.U. after   10 cycles
 SCF Done:  E(RB3LYP) =  -402.130878488     A.U. after   11 cycles
 SCF Done:  E(RB3LYP) =  -402.130881387     A.U. after    9 cycles
 SCF Done:  E(RB3LYP) =  -402.131038332     A.U. after   13 cycles
 SCF Done:  E(RB3LYP) =  -402.131094685     A.U. after   10 cycles
 SCF Done:  E(RB3LYP) =  -402.131136853     A.U. after   11 cycles
 SCF Done:  E(RB3LYP) =  -402.131162454     A.U. after   12 cycles
 SCF Done:  E(RB3LYP) =  -402.131150395     A.U. after   12 cycles
 SCF Done:  E(RB3LYP) =  -402.131187044     A.U. after   11 cycles
 SCF Done:  E(RB3LYP) =  -402.131187555     A.U. after   10 cycles
 SCF Done:  E(RB3LYP) =  -402.131187837     A.U. after    7 cycles
 Optimization completed.
    -- Stationary point found.
 Normal termination of Gaussian 09 at Mon Oct  4 10:22:00 2021.

 ----------------------------------------------------------------------
 #p freq b3lyp/6-31G* volume NMR pop=NPA density=current Geom=AllCheck
 Guess=Read
 ----------------------------------------------------------------------

 Cn1ccc(c1)C(=O)C_conf_0
 -----------------------
 Redundant internal coordinates taken from checkpoint file:
 C7H9NO_cfdf_conf_0.chk
 Charge =  0 Multiplicity = 1

 SCF Done:  E(RB3LYP) =  -402.131187837     A.U. after    1 cycles

  1  C    Isotropic =   154.0967   Anisotropy =    55.7132

  2  N    Isotropic =   102.1104   Anisotropy =   128.8990

  3  C    Isotropic =    76.6734   Anisotropy =    85.3265

  4  C    Isotropic =    84.9062   Anisotropy =   119.6700

  5  C    Isotropic =    69.9895   Anisotropy =   109.8113

  6  C    Isotropic =    70.4584   Anisotropy =    98.2835

  7  C    Isotropic =     9.1563   Anisotropy =   152.2941

  8  O    Isotropic =  -232.0057   Anisotropy =   865.1096

  9  C    Isotropic =   162.6779   Anisotropy =    43.7699

 10  H    Isotropic =    28.7812   Anisotropy =     8.3599

 11  H    Isotropic =    28.8862   Anisotropy =     7.8101

 12  H    Isotropic =    28.6613   Anisotropy =     9.3390

 13  H    Isotropic =    25.9994   Anisotropy =     3.5495

 14  H    Isotropic =    26.0359   Anisotropy =     3.8489

 15  H    Isotropic =    25.1906   Anisotropy =     4.4528

 16  H    Isotropic =    29.9078   Anisotropy =     4.2233

 17  H    Isotropic =    29.8951   Anisotropy =     4.1957

 18  H    Isotropic =    30.5740   Anisotropy =     6.3409

  Exact polarizability: 112.903   1.303  83.219   0.314  -0.058  42.187
 Approx polarizability: 155.806   9.794 139.853   0.117   0.126  62.284

                     1                      2                      3
                     A                      A                      A
 Frequencies --    62.2760                72.9394               125.1930
 Red. masses --     1.0617                 3.0590                 1.0543
 Frc consts  --     0.0024                 0.0096                 0.0097
 IR Inten    --     0.0937                 5.5521                 0.0038

                     4                      5                      6
                     A                      A                      A
 Frequencies --   155.0077               161.6738               233.9894
 Red. masses --     4.1133                 3.9252                 4.0883
 Frc consts  --     0.0582                 0.0604                 0.1319
 IR Inten    --     0.2921                 4.9090                 1.6940

                     7                      8                      9
                     A                      A                      A
 Frequencies --   324.7646               392.4232               507.3862
 Red. masses --     2.9326                 3.8493                 4.2780
 Frc consts  --     0.1822                 0.3493                 0.6489
 IR Inten    --     0.1794                 2.5269                 1.8157

                    10                     11                     12
                     A                      A                      A
 Frequencies --   557.4729               610.0166               621.3366
 Red. masses --     3.0379                 3.7566                 4.0962
 Frc consts  --     0.5562                 0.8236                 0.9317
 IR Inten    --     0.3174                13.8736                 6.7397

                    13                     14                     15
                     A                      A                      A
 Frequencies --   670.9649               695.7261               701.4150
 Red. masses --     2.2645                 1.3386                 3.8794
 Frc consts  --     0.6006                 0.3818                 1.1245
 IR Inten    --     5.5164                24.1536                12.8262

                    16                     17                     18
                     A                      A                      A
 Frequencies --   820.4856               839.2792               930.1995
 Red. masses --     1.3618                 1.3278                 4.0355
 Frc consts  --     0.5401                 0.5510                 2.0573
 IR Inten    --    21.7770                10.0692                41.9721

                    19                     20                     21
                     A                      A                      A
 Frequencies --  1000.3145              1014.6725              1053.0908
 Red. masses --     2.0982                 3.2115                 1.8404
 Frc consts  --     1.2370                 1.9481                 1.2025
 IR Inten    --     4.0173                 7.2567                 3.2320

                    22                     23                     24
                     A                      A                      A
 Frequencies --  1090.4566              1106.0937              1124.7072
 Red. masses --     1.6212                 1.3911                 1.3567
 Frc consts  --     1.1358                 1.0027                 1.0111
 IR Inten    --     8.2338                15.8755                 4.4812

                    25                     26                     27
                     A                      A                      A
 Frequencies --  1157.8134              1247.6658              1269.3119
 Red. masses --     1.3080                 2.5828                 1.5550
 Frc consts  --     1.0331                 2.3689                 1.4761
 IR Inten    --    10.0595               192.0261                26.3508

                    28                     29                     30
                     A                      A                      A
 Frequencies --  1384.3337              1406.2752              1425.2978
 Red. masses --     3.6145                 1.5269                 4.7406
 Frc consts  --     4.0812                 1.7791                 5.6740
 IR Inten    --    11.4591                32.7624                15.6194

                    31                     32                     33
                     A                      A                      A
 Frequencies --  1439.3686              1474.7900              1499.1226
 Red. masses --     5.5742                 1.2722                 1.0593
 Frc consts  --     6.8042                 1.6302                 1.4026
 IR Inten    --    12.1223                38.3539                10.1387

                    34                     35                     36
                     A                      A                      A
 Frequencies --  1506.0065              1515.4027              1536.6009
 Red. masses --     1.0486                 1.0452                 1.1930
 Frc consts  --     1.4012                 1.4142                 1.6597
 IR Inten    --     8.2748                10.6446                13.5863

                    37                     38                     39
                     A                      A                      A
 Frequencies --  1567.2060              1586.7470              1763.4416
 Red. masses --     2.6946                 4.3742                10.4293
 Frc consts  --     3.8994                 6.4888                19.1086
 IR Inten    --    24.6287               153.9357               200.6163

                    40                     41                     42
                     A                      A                      A
 Frequencies --  3049.3220              3058.8587              3107.4501
 Red. masses --     1.0379                 1.0368                 1.0999
 Frc consts  --     5.6863                 5.7156                 6.2576
 IR Inten    --     4.2791                54.9173                13.0789

                    43                     44                     45
                     A                      A                      A
 Frequencies --  3124.9175              3159.9829              3165.8118
 Red. masses --     1.1019                 1.1038                 1.1013
 Frc consts  --     6.3396                 6.4937                 6.5031
 IR Inten    --    18.7974                 8.7755                14.6911

                    46                     47                     48
                     A                      A                      A
 Frequencies --  3257.6259              3277.8562              3290.6134
 Red. masses --     1.0894                 1.1029                 1.0968
 Frc consts  --     6.8117                 6.9815                 6.9976
 IR Inten    --     1.5215                 3.1772                 1.2876

 - Thermochemistry -
 -------------------
 Temperature   298.150 Kelvin.  Pressure   1.00000 Atm.
 Atom     1 has atomic number  6 and mass  12.00000

 Molecular mass:   123.06841 amu.
 Principal axes and moments of inertia in atomic units:
                           1         2         3
     Eigenvalues --   443.442571753.004782173.58948
           X            0.99930  -0.03738   0.00026
           Y            0.03738   0.99930  -0.00021
           Z           -0.00025   0.00021   1.00000
 This molecule is an asymmetric top.
 Rotational symmetry number  1.
 Warning -- assumption of classical behavior for rotation
           may cause significant error
 Rotational temperatures (Kelvin)      0.19532     0.04941     0.03985
 Rotational constants (GHZ):           4.06984     1.02951     0.83030
 Zero-point vibrational energy     389645.9 (Joules/Mol)
                                   93.12760 (Kcal/Mol)
 Warning -- explicit consideration of  11 degrees of freedom as
           vibrations may cause significant error
 Vibrational temperatures:     89.60   104.94   180.12   223.02   232.61
          (Kelvin)            336.66   467.26   564.61   730.01   802.08
                              877.68   893.96   965.37  1000.99  1009.18
                             1180.49  1207.53  1338.35  1439.23  1459.89
                             1515.16  1568.92  1591.42  1618.20  1665.83
                             1795.11  1826.25  1991.75  2023.31  2050.68
                             2070.93  2121.89  2156.90  2166.80  2180.32
                             2210.82  2254.86  2282.97  2537.20  4387.29
                             4401.01  4470.92  4496.05  4546.50  4554.89
                             4686.99  4716.10  4734.45

 Zero-point correction=                           0.148408 (Hartree/Particle)
 Thermal correction to Energy=                    0.157528
 Thermal correction to Enthalpy=                  0.158472
 Thermal correction to Gibbs Free Energy=         0.113735
 Sum of electronic and zero-point Energies=           -401.982780
 Sum of electronic and thermal Energies=              -401.973660
 Sum of electronic and thermal Enthalpies=            -401.972715
 Sum of electronic and thermal Free Energies=         -402.017453

                     E (Thermal)             CV                S
                      KCal/Mol        Cal/Mol-Kelvin    Cal/Mol-Kelvin
 Total                   98.850             32.459             94.158
 Electronic               0.000              0.000              0.000
 Translational            0.889              2.981             40.337
 Rotational               0.889              2.981             28.915
 Vibrational             97.073             26.498             24.906
 Vibration     1          0.597              1.972              4.384
 Vibration     2          0.599              1.967              4.072
 Vibration     3          0.610              1.928              3.019
 Vibration     4          0.620              1.897              2.610
 Vibration     5          0.622              1.889              2.530
 Vibration     6          0.654              1.789              1.848
 Vibration     7          0.709              1.626              1.286
 Vibration     8          0.760              1.486              0.991
 Vibration     9          0.863              1.234              0.640
 Vibration    10          0.913              1.123              0.529
 Vibration    11          0.969              1.011              0.433

 Optimization completed.
    -- Stationary point found.
 Normal termination of Gaussian 09 at Mon Oct  4 10:50:12 2021.
 Gaussian 09:  AM64L-G09RevA.02 11-Jun-2009

 ----------------------------------------------------------------------
 #p TD(NStates=10, Root=1) b3lyp/6-31G* volume pop=NPA density=current
 Geom=AllCheck Guess=Read
 ----------------------------------------------------------------------

 Cn1ccc(c1)C(=O)C_conf_0
 -----------------------
 Redundant internal coordinates taken from checkpoint file:
 C7H9NO_cfdf_conf_0.chk
 Charge =  0 Multiplicity = 1

                         Standard orientation:
 ---------------------------------------------------------------------
 Center     Atomic      Atomic             Coordinates (Angstroms)
 Number     Number       Type             X           Y           Z
 ---------------------------------------------------------------------
      1          6           0        3.139345   -0.634735    0.026522
      2          7           0        1.795044   -0.084932   -0.024718
      3          6           0        1.485682    1.264335   -0.011808
      4          6           0        0.118695    1.393729    0.001436
      5          6           0       -0.435007    0.072207   -0.000348
      6          6           0        0.639948   -0.807101   -0.013376
      7          6           0       -1.841047   -0.360564    0.001335
      8          8           0       -2.145341   -1.548172   -0.005466
      9          6           0       -2.911300    0.721179    0.013441
     10          1           0        3.795782   -0.077366   -0.647893
     11          1           0        3.112972   -1.677653   -0.296241
     12          1           0        3.550308   -0.587919    1.041574
     13          1           0        2.271208    2.006989   -0.016594
     14          1           0       -0.427259    2.327331    0.001085
     15          1           0        0.640337   -1.887213   -0.017075
     16          1           0       -2.820298    1.367931   -0.868017
     17          1           0       -2.806917    1.362216    0.897553
     18          1           0       -3.896609    0.251280    0.019160
 ---------------------------------------------------------------------

 SCF Done:  E(RB3LYP) =  -402.131187837     A.U. after    1 cycles

 Excitation energies and oscillator strengths:

 Excited State   1:      Singlet-A      4.0438 eV  306.60 nm  f=0.0001  <S**2>=0.000
      32 -> 34         0.70067
 This state for optimization and/or second-order correction.
 Total Energy, E(TD-HF/TD-KS) =  -401.982581797
 Copying the excited state density for this state as the 1-particle RhoCI density.

 Excited State   2:      Singlet-A      4.9277 eV  251.61 nm  f=0.0514  <S**2>=0.000
      31 -> 34        -0.21009
      33 -> 34         0.66247

 Excited State   3:      Singlet-A      5.5766 eV  222.33 nm  f=0.2200  <S**2>=0.000
      31 -> 34         0.64981
      33 -> 34         0.21576
      33 -> 35        -0.15016

 Excited State   4:      Singlet-A      6.3155 eV  196.32 nm  f=0.0002  <S**2>=0.000
      32 -> 35         0.70138

 Excited State   5:      Singlet-A      6.5740 eV  188.60 nm  f=0.1837  <S**2>=0.000
      31 -> 34         0.15091
      31 -> 35         0.20264
      33 -> 35         0.64314

 Excited State   6:      Singlet-A      7.0870 eV  174.94 nm  f=0.2175  <S**2>=0.000
      31 -> 35         0.62216
      33 -> 35        -0.19779
      33 -> 38        -0.18574

 Excited State   7:      Singlet-A      7.3385 eV  168.95 nm  f=0.0062  <S**2>=0.000
      33 -> 36         0.68986
      33 -> 37         0.10236

 Excited State   8:      Singlet-A      7.9656 eV  155.65 nm  f=0.0006  <S**2>=0.000
      31 -> 36        -0.12224
      33 -> 36        -0.12024
      33 -> 37         0.66300

 Excited State   9:      Singlet-A      7.9737 eV  155.49 nm  f=0.0231  <S**2>=0.000
      32 -> 36         0.68397
      32 -> 37         0.13057

 Excited State  10:      Singlet-A      8.0235 eV  154.53 nm  f=0.0038  <S**2>=0.000
      29 -> 34         0.14591
      31 -> 36         0.65839
      33 -> 37         0.13783

 The electronic state is 1-A.
 Alpha  occ. eigenvalues --  -19.11098 -14.39744 -10.25719 -10.24182 -10.21383
 Alpha  occ. eigenvalues --  -10.21107 -10.17969 -10.17478 -10.17442  -1.01056
 Alpha  occ. eigenvalues --   -0.99273  -0.81313  -0.73996  -0.72817  -0.69657
 Alpha  occ. eigenvalues --   -0.60644  -0.56335  -0.54694  -0.49550  -0.47500
 Alpha  occ. eigenvalues --   -0.44751  -0.43896  -0.42620  -0.42093  -0.41596
 Alpha  occ. eigenvalues --   -0.40024  -0.38274  -0.37203  -0.36595  -0.33797
 Alpha  occ. eigenvalues --   -0.24301  -0.22843  -0.21761
 Alpha virt. eigenvalues --   -0.01845   0.03479   0.08700   0.10943   0.11477
 Alpha virt. eigenvalues --    0.12623   0.13510   0.15399   0.15914   0.16743
 Alpha virt. eigenvalues --    0.16902   0.18203   0.19122   0.22376   0.24302

 Mulliken atomic charges:
              1
     1  C   -0.317173
     2  N   -0.378288
     3  C    0.026490
     4  C   -0.249764
     5  C    0.050345
     6  C   -0.024444
     7  C    0.288205
     8  O   -0.331808
     9  C   -0.506006
    10  H    0.168017
    11  H    0.171116
    12  H    0.169853
    13  H    0.139281
    14  H    0.116994
    15  H    0.143593
    16  H    0.180588
    17  H    0.180749
    18  H    0.172252
 Sum of Mulliken atomic charges =  -0.00000

 Dipole moment (field-independent basis, Debye):
    X=              1.7693    Y=              1.0519    Z=              0.0189  Tot=              2.0584
 Quadrupole moment (field-independent basis, Debye-Ang):
   XX=            -41.5338   YY=            -51.8002   ZZ=            -55.7377
   XY=             -5.5274   XZ=             -0.0889   YZ=              0.0220

 Summary of Natural Population Analysis:

                                       Natural Population
                Natural  -----------------------------------------------
    Atom  No    Charge         Core      Valence    Rydberg      Total
 -----------------------------------------------------------------------
      C    1   -0.45823      1.99948     4.44723    0.01152     6.45823
      N    2   -0.37169      1.99933     5.36123    0.01113     7.37169
      C    3   -0.06249      1.99914     4.04539    0.01796     6.06249
      C    4   -0.31508      1.99902     4.30349    0.01257     6.31508
      C    5   -0.20148      1.99891     4.18684    0.01573     6.20148
      C    6   -0.07538      1.99907     4.05578    0.02053     6.07538
      C    7    0.31348      1.99924     3.65526    0.03203     5.68652
      O    8   -0.27153      1.99982     6.25380    0.01791     8.27153
      C    9   -0.69815      1.99934     4.69231    0.00650     6.69815
      H   10    0.23266      0.00000     0.76628    0.00106     0.76734
      H   11    0.23712      0.00000     0.76193    0.00094     0.76288
      H   12    0.22768      0.00000     0.77066    0.00166     0.77232
      H   13    0.22841      0.00000     0.77109    0.00049     0.77159
      H   14    0.23677      0.00000     0.76274    0.00049     0.76323
      H   15    0.23002      0.00000     0.76944    0.00053     0.76998
      H   16    0.24886      0.00000     0.74948    0.00166     0.75114
      H   17    0.24907      0.00000     0.74930    0.00164     0.75093
      H   18    0.24996      0.00000     0.74894    0.00110     0.75004
 =======================================================================
   * Total *   -0.00000     17.99335    47.85120    0.15545    66.00000

 Normal termination of Gaussian 09 at Mon Oct  4 13:13:05 2021.
