 Gaussian 09, Revision A.02,

 -----------------------------------
 #p opt b3lyp/6-31G* scf=(xqc,tight)
 -----------------------------------

 ------------------
 COc1ccccc1C_conf_0
 ------------------
 Symbolic Z-matrix:
 Charge =  0 Multiplicity = 1

 SCF Done:  E(RB3LYP) =  -386.080031952     A.U. after   14 cycles
 SCF Done:  E(RB3LYP) =  -386.082596867     A.U. after   12 cycles
 SCF Done:  E(RB3LYP) =  -386.083043161     A.U. after   11 cycles
 SCF Done:  E(RB3LYP) =  -386.083833829     A.U. after   12 cycles
 SCF Done:  E(RB3LYP) =  -386.084314991     A.U. after   12 cycles
 SCF Done:  E(RB3LYP) =  -386.084379911     A.U. after   11 cycles
 SCF Done:  E(RB3LYP) =  -386.084428798     A.U. after   11 cycles
 SCF Done:  E(RB3LYP) =  -386.084461868     A.U. after   11 cycles
 SCF Done:  E(RB3LYP) =  -386.084699804     A.U. after   13 cycles
 SCF Done:  E(RB3LYP) =  -386.087138011     A.U. after   15 cycles
 SCF Done:  E(RB3LYP) =  -386.089713688     A.U. after   11 cycles
 SCF Done:  E(RB3LYP) =  -386.089782432     A.U. after   15 cycles
 SCF Done:  E(RB3LYP) =  -386.089806595     A.U. after   15 cycles
 SCF Done:  E(RB3LYP) =  -386.089810900     A.U. after    8 cycles
 SCF Done:  E(RB3LYP) =  -386.089811985     A.U. after    8 cycles
 SCF Done:  E(RB3LYP) =  -386.089812518     A.U. after    7 cycles
 SCF Done:  E(RB3LYP) =  -386.089813254     A.U. after    7 cycles
 SCF Done:  E(RB3LYP) =  -386.089813630     A.U. after    7 cycles
 Optimization completed.
    -- Stationary point found.
 Normal termination of Gaussian 09 at Tue Sep 28 16:29:21 2021.

 ----------------------------------------------------------------------
 #p freq b3lyp/6-31G* volume NMR pop=NPA density=current Geom=AllCheck
 Guess=Read
 ----------------------------------------------------------------------

 COc1ccccc1C_conf_0
 ------------------
 Redundant internal coordinates taken from checkpoint file:
 C8H10O_46e0_conf_0.chk
 Charge =  0 Multiplicity = 1

 SCF Done:  E(RB3LYP) =  -386.089813630     A.U. after    1 cycles

  1  C    Isotropic =   137.3434   Anisotropy =    65.1969

  2  O    Isotropic =   237.6286   Anisotropy =    91.3597

  3  C    Isotropic =    40.3509   Anisotropy =   123.3532

  4  C    Isotropic =    87.2039   Anisotropy =   142.2676

  5  C    Isotropic =    69.4341   Anisotropy =   160.0742

  6  C    Isotropic =    76.4708   Anisotropy =   153.1989

  7  C    Isotropic =    65.7579   Anisotropy =   142.1654

  8  C    Isotropic =    69.3117   Anisotropy =   153.0062

  9  C    Isotropic =   170.6707   Anisotropy =    24.4878

 10  H    Isotropic =    28.2409   Anisotropy =     8.0586

 11  H    Isotropic =    28.6123   Anisotropy =     8.4190

 12  H    Isotropic =    28.6130   Anisotropy =     8.4111

 13  H    Isotropic =    25.8620   Anisotropy =     7.3141

 14  H    Isotropic =    25.1795   Anisotropy =     4.5092

 15  H    Isotropic =    25.4818   Anisotropy =     3.9533

 16  H    Isotropic =    25.2080   Anisotropy =     6.3172

 17  H    Isotropic =    30.5417   Anisotropy =     7.7102

 18  H    Isotropic =    29.8722   Anisotropy =     7.7244

 19  H    Isotropic =    29.8734   Anisotropy =     7.7281

  Exact polarizability: 109.735   1.656  98.913  -0.002   0.003  42.204
 Approx polarizability: 166.413   4.856 154.925  -0.007   0.002  61.851

                     1                      2                      3
                     A                      A                      A
 Frequencies --    91.6506               141.5832               171.4149
 Red. masses --     2.7912                 1.0813                 2.6838
 Frc consts  --     0.0138                 0.0128                 0.0465
 IR Inten    --     3.7272                 0.7224                 1.9473

                     4                      5                      6
                     A                      A                      A
 Frequencies --   231.1980               244.3278               298.2755
 Red. masses --     2.9894                 1.4048                 2.2716
 Frc consts  --     0.0941                 0.0494                 0.1191
 IR Inten    --     1.9447                 0.4790                 0.0027

                     7                      8                      9
                     A                      A                      A
 Frequencies --   325.5149               456.4027               502.9879
 Red. masses --     2.9461                 3.0194                 5.0539
 Frc consts  --     0.1839                 0.3706                 0.7533
 IR Inten    --     0.3369                 1.2136                 2.6358

                    10                     11                     12
                     A                      A                      A
 Frequencies --   507.4865               558.0602               598.9561
 Red. masses --     3.8341                 3.6463                 5.9836
 Frc consts  --     0.5818                 0.6691                 1.2647
 IR Inten    --     3.3742                 0.0310                 2.2941

                    13                     14                     15
                     A                      A                      A
 Frequencies --   724.9101               765.1311               766.1864
 Red. masses --     2.7025                 4.5030                 1.4217
 Frc consts  --     0.8367                 1.5532                 0.4917
 IR Inten    --     2.8385                 6.8911                51.3276

                    16                     17                     18
                     A                      A                      A
 Frequencies --   832.9338               855.4275               926.5631
 Red. masses --     4.7972                 1.3681                 1.3307
 Frc consts  --     1.9609                 0.5899                 0.6731
 IR Inten    --     3.7745                 1.3254                 1.5855

                    19                     20                     21
                     A                      A                      A
 Frequencies --   967.9590              1017.0760              1073.7022
 Red. masses --     1.2360                 1.5777                 4.3293
 Frc consts  --     0.6823                 0.9616                 2.9406
 IR Inten    --     0.0124                 4.7603                31.2487

                    22                     23                     24
                     A                      A                      A
 Frequencies --  1075.6783              1084.2707              1156.8279
 Red. masses --     1.4888                 2.5137                 1.6608
 Frc consts  --     1.0150                 1.7411                 1.3095
 IR Inten    --     2.2468                17.0320                36.0749

                    25                     26                     27
                     A                      A                      A
 Frequencies --  1184.5739              1196.3280              1211.8907
 Red. masses --     1.2722                 1.0999                 1.8084
 Frc consts  --     1.0518                 0.9275                 1.5649
 IR Inten    --     0.8290                 2.3549                12.0425

                    28                     29                     30
                     A                      A                      A
 Frequencies --  1230.2384              1293.1697              1327.7289
 Red. masses --     1.9316                 3.9619                 1.4939
 Frc consts  --     1.7224                 3.9036                 1.5516
 IR Inten    --     1.9906               197.6618                10.3207

                    31                     32                     33
                     A                      A                      A
 Frequencies --  1367.8993              1444.6836              1485.5030
 Red. masses --     5.8182                 1.2520                 1.5511
 Frc consts  --     6.4143                 1.5396                 2.0166
 IR Inten    --    22.9509                 0.2450                28.9383

                    34                     35                     36
                     A                      A                      A
 Frequencies --  1506.1089              1507.9381              1520.2396
 Red. masses --     1.3487                 1.0449                 1.0484
 Frc consts  --     1.8026                 1.3999                 1.4276
 IR Inten    --     1.1061                 5.1747                 5.0475

                    37                     38                     39
                     A                      A                      A
 Frequencies --  1527.1783              1534.2478              1551.3224
 Red. masses --     1.3065                 1.1129                 2.0393
 Frc consts  --     1.7953                 1.5435                 2.8916
 IR Inten    --     4.0656                58.2137                49.7563

                    40                     41                     42
                     A                      A                      A
 Frequencies --  1646.8307              1662.1731              3023.9058
 Red. masses --     6.0764                 5.7064                 1.0347
 Frc consts  --     9.7095                 9.2889                 5.5744
 IR Inten    --     7.5200                31.8575                56.4066

                    43                     44                     45
                     A                      A                      A
 Frequencies --  3047.8730              3082.0683              3099.0138
 Red. masses --     1.0362                 1.1066                 1.1003
 Frc consts  --     5.6715                 6.1934                 6.2261
 IR Inten    --    29.1520                43.9230                19.1216

                    46                     47                     48
                     A                      A                      A
 Frequencies --  3128.9243              3153.9216              3176.8456
 Red. masses --     1.1025                 1.0997                 1.0867
 Frc consts  --     6.3596                 6.4451                 6.4618
 IR Inten    --    19.4346                26.3110                 9.2286

                    49                     50                     51
                     A                      A                      A
 Frequencies --  3187.5353              3206.2965              3222.1543
 Red. masses --     1.0888                 1.0949                 1.0926
 Frc consts  --     6.5176                 6.6316                 6.6836
 IR Inten    --    15.5899                31.9490                11.7125

 - Thermochemistry -
 -------------------
 Temperature   298.150 Kelvin.  Pressure   1.00000 Atm.
 Atom     1 has atomic number  6 and mass  12.00000

 Molecular mass:   122.07317 amu.
 Principal axes and moments of inertia in atomic units:
                           1         2         3
     Eigenvalues --   726.027851164.471481867.88167
           X            0.99916  -0.04110   0.00001
           Y            0.04110   0.99916   0.00000
           Z           -0.00001   0.00000   1.00000
 This molecule is an asymmetric top.
 Rotational symmetry number  1.
 Warning -- assumption of classical behavior for rotation
           may cause significant error
 Rotational temperatures (Kelvin)      0.11930     0.07438     0.04637
 Rotational constants (GHZ):           2.48577     1.54984     0.96620
 Zero-point vibrational energy     424082.9 (Joules/Mol)
                                  101.35824 (Kcal/Mol)
 Warning -- explicit consideration of  12 degrees of freedom as
           vibrations may cause significant error
 Vibrational temperatures:    131.86   203.71   246.63   332.64   351.53
          (Kelvin)            429.15   468.34   656.66   723.69   730.16
                              802.92   861.76  1042.98  1100.85  1102.37
                             1198.40  1230.77  1333.12  1392.68  1463.34
                             1544.82  1547.66  1560.02  1664.42  1704.34
                             1721.25  1743.64  1770.04  1860.58  1910.30
                             1968.10  2078.57  2137.30  2166.95  2169.58
                             2187.28  2197.27  2207.44  2232.00  2369.42
                             2391.49  4350.72  4385.20  4434.40  4458.78
                             4501.82  4537.78  4570.77  4586.15  4613.14
                             4635.96

 Zero-point correction=                           0.161525 (Hartree/Particle)
 Thermal correction to Energy=                    0.170016
 Thermal correction to Enthalpy=                  0.170960
 Thermal correction to Gibbs Free Energy=         0.128485
 Sum of electronic and zero-point Energies=           -385.928289
 Sum of electronic and thermal Energies=              -385.919798
 Sum of electronic and thermal Enthalpies=            -385.918853
 Sum of electronic and thermal Free Energies=         -385.961328

                     E (Thermal)             CV                S
                      KCal/Mol        Cal/Mol-Kelvin    Cal/Mol-Kelvin
 Total                  106.687             32.165             89.395
 Electronic               0.000              0.000              0.000
 Translational            0.889              2.981             40.313
 Rotational               0.889              2.981             28.848
 Vibrational            104.909             26.204             20.235
 Vibration     1          0.602              1.955              3.625
 Vibration     2          0.615              1.912              2.782
 Vibration     3          0.626              1.878              2.420
 Vibration     4          0.653              1.793              1.870
 Vibration     5          0.660              1.772              1.771
 Vibration     6          0.691              1.677              1.427
 Vibration     7          0.710              1.624              1.282
 Vibration     8          0.815              1.347              0.777
 Vibration     9          0.858              1.243              0.651
 Vibration    10          0.863              1.233              0.640
 Vibration    11          0.914              1.122              0.528
 Vibration    12          0.957              1.034              0.451

 Normal termination of Gaussian 09 at Tue Sep 28 16:48:47 2021.
 Gaussian 09:  AM64L-G09RevA.02 11-Jun-2009

 ----------------------------------------------------------------------
 #p TD(NStates=10, Root=1) b3lyp/6-31G* volume pop=NPA density=current
 Geom=AllCheck Guess=Read
 ----------------------------------------------------------------------

 COc1ccccc1C_conf_0
 ------------------
 Redundant internal coordinates taken from checkpoint file:
 C8H10O_46e0_conf_0.chk
 Charge =  0 Multiplicity = 1

                         Standard orientation:
 ---------------------------------------------------------------------
 Center     Atomic      Atomic             Coordinates (Angstroms)
 Number     Number       Type             X           Y           Z
 ---------------------------------------------------------------------
      1          6           0        2.754236   -0.708621    0.000326
      2          8           0        1.756928    0.298174   -0.000385
      3          6           0        0.442188   -0.086625   -0.000143
      4          6           0        0.015119   -1.417343   -0.000155
      5          6           0       -1.353595   -1.706250   -0.000038
      6          6           0       -2.289039   -0.676964    0.000101
      7          6           0       -1.846906    0.650266    0.000117
      8          6           0       -0.490333    0.972935   -0.000001
      9          6           0       -0.007162    2.401165    0.000030
     10          1           0        3.711318   -0.183183    0.001758
     11          1           0        2.690405   -1.342126   -0.894560
     12          1           0        2.688524   -1.343209    0.894287
     13          1           0        0.732732   -2.230038   -0.000261
     14          1           0       -1.677386   -2.743793   -0.000057
     15          1           0       -3.352621   -0.897699    0.000176
     16          1           0       -2.573444    1.459941    0.000271
     17          1           0       -0.851321    3.097510   -0.000575
     18          1           0        0.615110    2.612836   -0.877816
     19          1           0        0.614209    2.613002    0.878437
 ---------------------------------------------------------------------

 SCF Done:  E(RB3LYP) =  -386.089813630     A.U. after    1 cycles

 Excitation energies and oscillator strengths:

 Excited State   1:      Singlet-A      5.1859 eV  239.08 nm  f=0.0286  <S**2>=0.000
      32 -> 34         0.14665
      32 -> 35        -0.32290
      33 -> 34         0.58823
      33 -> 35         0.16622
 This state for optimization and/or second-order correction.
 Total Energy, E(TD-HF/TD-KS) =  -385.899233661
 Copying the excited state density for this state as the 1-particle RhoCI density.

 Excited State   2:      Singlet-A      5.8794 eV  210.88 nm  f=0.0826  <S**2>=0.000
      32 -> 34         0.33148
      33 -> 34        -0.22070
      33 -> 35         0.57807

 Excited State   3:      Singlet-A      6.8933 eV  179.86 nm  f=0.4294  <S**2>=0.000
      31 -> 34         0.18643
      32 -> 34        -0.15526
      32 -> 35         0.56029
      33 -> 34         0.30143
      33 -> 35         0.16733

 Excited State   4:      Singlet-A      6.9208 eV  179.15 nm  f=0.5290  <S**2>=0.000
      32 -> 34         0.57605
      32 -> 35         0.20275
      33 -> 35        -0.31504

 Excited State   5:      Singlet-A      7.3351 eV  169.03 nm  f=0.0009  <S**2>=0.000
      33 -> 36         0.68565
      33 -> 37        -0.15816

 Excited State   6:      Singlet-A      7.7090 eV  160.83 nm  f=0.0010  <S**2>=0.000
      30 -> 34         0.69337

 Excited State   7:      Singlet-A      7.7586 eV  159.80 nm  f=0.0053  <S**2>=0.000
      33 -> 36         0.15737
      33 -> 37         0.66164
      33 -> 38         0.14924

 Excited State   8:      Singlet-A      7.8999 eV  156.94 nm  f=0.0002  <S**2>=0.000
      30 -> 35         0.68771

 Excited State   9:      Singlet-A      7.9569 eV  155.82 nm  f=0.0040  <S**2>=0.000
      32 -> 36        -0.17850
      33 -> 37        -0.13643
      33 -> 38         0.65524

 Excited State  10:      Singlet-A      8.0570 eV  153.88 nm  f=0.0003  <S**2>=0.000
      32 -> 36         0.65272
      32 -> 37        -0.17669
      33 -> 38         0.17237

 The electronic state is 1-A.
 Alpha  occ. eigenvalues --  -19.17439 -10.23931 -10.23869 -10.18637 -10.18297
 Alpha  occ. eigenvalues --  -10.18132 -10.18033 -10.17578 -10.17389  -1.05940
 Alpha  occ. eigenvalues --   -0.84420  -0.76664  -0.74136  -0.69906  -0.67084
 Alpha  occ. eigenvalues --   -0.59169  -0.57742  -0.52365  -0.47812  -0.46854
 Alpha  occ. eigenvalues --   -0.46636  -0.43941  -0.41563  -0.40887  -0.39932
 Alpha  occ. eigenvalues --   -0.38030  -0.35774  -0.35705  -0.34314  -0.31830
 Alpha  occ. eigenvalues --   -0.31335  -0.23789  -0.21061
 Alpha virt. eigenvalues --    0.00892   0.01954   0.09591   0.10904   0.11679
 Alpha virt. eigenvalues --    0.14574   0.15127   0.15695   0.15886   0.16810
 Alpha virt. eigenvalues --    0.17824   0.19452   0.20741   0.20860   0.24322

 Mulliken atomic charges:
              1
     1  C   -0.224645
     2  O   -0.453773
     3  C    0.301261
     4  C   -0.197840
     5  C   -0.164891
     6  C   -0.106795
     7  C   -0.217653
     8  C    0.119926
     9  C   -0.511621
    10  H    0.175720
    11  H    0.169337
    12  H    0.169334
    13  H    0.121050
    14  H    0.119531
    15  H    0.129551
    16  H    0.111439
    17  H    0.147071
    18  H    0.156504
    19  H    0.156496
 Sum of Mulliken atomic charges =  -0.00000

 Dipole moment (field-independent basis, Debye):
    X=              2.0170    Y=             -0.9401    Z=              0.0009  Tot=              2.2253
 Quadrupole moment (field-independent basis, Debye-Ang):
   XX=            -45.3655   YY=            -51.3760   ZZ=            -56.3543
   XY=             -3.0918   XZ=              0.0021   YZ=              0.0001

 Summary of Natural Population Analysis:

                                       Natural Population
                Natural  -----------------------------------------------
    Atom  No    Charge         Core      Valence    Rydberg      Total
 -----------------------------------------------------------------------
      C    1   -0.32297      1.99942     4.30937    0.01418     6.32297
      O    2   -0.44275      1.99975     6.43143    0.01157     8.44275
      C    3    0.32745      1.99874     3.65127    0.02255     5.67255
      C    4   -0.33145      1.99906     4.31495    0.01744     6.33145
      C    5   -0.27719      1.99915     4.25861    0.01944     6.27719
      C    6   -0.17008      1.99912     4.15464    0.01633     6.17008
      C    7   -0.28673      1.99908     4.26936    0.01829     6.28673
      C    8   -0.08991      1.99901     4.07295    0.01795     6.08991
      C    9   -0.68790      1.99941     4.68027    0.00822     6.68790
      H   10    0.23057      0.00000     0.76888    0.00055     0.76943
      H   11    0.21530      0.00000     0.78261    0.00208     0.78470
      H   12    0.21528      0.00000     0.78263    0.00209     0.78472
      H   13    0.22564      0.00000     0.77335    0.00101     0.77436
      H   14    0.22767      0.00000     0.77147    0.00086     0.77233
      H   15    0.22933      0.00000     0.76980    0.00087     0.77067
      H   16    0.22456      0.00000     0.77443    0.00101     0.77544
      H   17    0.23448      0.00000     0.76468    0.00083     0.76552
      H   18    0.23936      0.00000     0.75884    0.00180     0.76064
      H   19    0.23934      0.00000     0.75886    0.00180     0.76066
 =======================================================================
   * Total *    0.00000     17.99273    47.84841    0.15886    66.00000

 Normal termination of Gaussian 09 at Tue Sep 28 18:24:06 2021.
