 Gaussian 09, Revision A.02,

 -----------------------------------
 #p opt b3lyp/6-31G* scf=(xqc,tight)
 -----------------------------------

 --------------------
 COc1cccc(c1)C_conf_0
 --------------------
 Symbolic Z-matrix:
 Charge =  0 Multiplicity = 1

 SCF Done:  E(RB3LYP) =  -386.082061108     A.U. after   14 cycles
 SCF Done:  E(RB3LYP) =  -386.084127424     A.U. after   12 cycles
 SCF Done:  E(RB3LYP) =  -386.084304016     A.U. after   11 cycles
 SCF Done:  E(RB3LYP) =  -386.084387203     A.U. after   11 cycles
 SCF Done:  E(RB3LYP) =  -386.084433363     A.U. after   11 cycles
 SCF Done:  E(RB3LYP) =  -386.084466876     A.U. after   11 cycles
 SCF Done:  E(RB3LYP) =  -386.084505605     A.U. after   12 cycles
 SCF Done:  E(RB3LYP) =  -386.084523418     A.U. after    9 cycles
 SCF Done:  E(RB3LYP) =  -386.084567247     A.U. after   12 cycles
 SCF Done:  E(RB3LYP) =  -386.084736114     A.U. after   13 cycles
 SCF Done:  E(RB3LYP) =  -386.089532300     A.U. after   15 cycles
 SCF Done:  E(RB3LYP) =  -386.086762602     A.U. after   15 cycles
 SCF Done:  E(RB3LYP) =  -386.089607554     A.U. after   14 cycles
 SCF Done:  E(RB3LYP) =  -386.089714218     A.U. after   11 cycles
 SCF Done:  E(RB3LYP) =  -386.089779314     A.U. after   11 cycles
 SCF Done:  E(RB3LYP) =  -386.089802761     A.U. after   10 cycles
 SCF Done:  E(RB3LYP) =  -386.089813305     A.U. after    9 cycles
 SCF Done:  E(RB3LYP) =  -386.089813589     A.U. after   16 cycles
 Optimization completed.
    -- Stationary point found.
 Normal termination of Gaussian 09 at Tue Sep 28 16:43:33 2021.

 ----------------------------------------------------------------------
 #p freq b3lyp/6-31G* volume NMR pop=NPA density=current Geom=AllCheck
 Guess=Read
 ----------------------------------------------------------------------

 COc1cccc(c1)C_conf_0
 --------------------
 Redundant internal coordinates taken from checkpoint file:
 C8H10O_6396_conf_0.chk
 Charge =  0 Multiplicity = 1

 SCF Done:  E(RB3LYP) =  -386.089813589     A.U. after    1 cycles

  1  C    Isotropic =   137.3478   Anisotropy =    65.2005

  2  O    Isotropic =   237.6358   Anisotropy =    91.3825

  3  C    Isotropic =    40.3478   Anisotropy =   123.3666

  4  C    Isotropic =    87.2096   Anisotropy =   142.2541

  5  C    Isotropic =    69.4432   Anisotropy =   160.0673

  6  C    Isotropic =    76.4711   Anisotropy =   153.1980

  7  C    Isotropic =    65.7657   Anisotropy =   142.1708

  8  C    Isotropic =    69.3056   Anisotropy =   153.0094

  9  C    Isotropic =   170.6748   Anisotropy =    24.4833

 10  H    Isotropic =    28.2410   Anisotropy =     8.0594

 11  H    Isotropic =    28.6118   Anisotropy =     8.4156

 12  H    Isotropic =    28.6138   Anisotropy =     8.4149

 13  H    Isotropic =    25.8624   Anisotropy =     7.3133

 14  H    Isotropic =    25.1798   Anisotropy =     4.5090

 15  H    Isotropic =    25.4821   Anisotropy =     3.9534

 16  H    Isotropic =    25.2080   Anisotropy =     6.3164

 17  H    Isotropic =    30.5416   Anisotropy =     7.7111

 18  H    Isotropic =    29.8729   Anisotropy =     7.7254

 19  H    Isotropic =    29.8734   Anisotropy =     7.7265

  Exact polarizability: 109.736   1.656  98.913  -0.006   0.003  42.203
 Approx polarizability: 166.415   4.857 154.925  -0.016   0.004  61.850

                     1                      2                      3
                     A                      A                      A
 Frequencies --    91.6359               141.7027               171.3916
 Red. masses --     2.7927                 1.0813                 2.6830
 Frc consts  --     0.0138                 0.0128                 0.0464
 IR Inten    --     3.7285                 0.7225                 1.9468

                     4                      5                      6
                     A                      A                      A
 Frequencies --   231.1948               244.2773               298.2359
 Red. masses --     2.9898                 1.4034                 2.2747
 Frc consts  --     0.0942                 0.0493                 0.1192
 IR Inten    --     1.9451                 0.4788                 0.0029

                     7                      8                      9
                     A                      A                      A
 Frequencies --   325.5034               456.3523               502.9952
 Red. masses --     2.9462                 3.0200                 5.0493
 Frc consts  --     0.1839                 0.3706                 0.7527
 IR Inten    --     0.3366                 1.2090                 2.6286

                    10                     11                     12
                     A                      A                      A
 Frequencies --   507.4810               558.0871               598.9557
 Red. masses --     3.8366                 3.6464                 5.9839
 Frc consts  --     0.5821                 0.6691                 1.2648
 IR Inten    --     3.3805                 0.0309                 2.2927

                    13                     14                     15
                     A                      A                      A
 Frequencies --   724.9273               765.1298               766.1923
 Red. masses --     2.7032                 4.5014                 1.4215
 Frc consts  --     0.8370                 1.5526                 0.4917
 IR Inten    --     2.8368                 6.8875                51.3172

                    16                     17                     18
                     A                      A                      A
 Frequencies --   832.9613               855.4899               926.5572
 Red. masses --     4.7975                 1.3680                 1.3308
 Frc consts  --     1.9612                 0.5899                 0.6731
 IR Inten    --     3.7749                 1.3314                 1.5922

                    19                     20                     21
                     A                      A                      A
 Frequencies --   967.9444              1017.0784              1073.7206
 Red. masses --     1.2360                 1.5776                 4.3190
 Frc consts  --     0.6823                 0.9615                 2.9337
 IR Inten    --     0.0122                 4.7610                31.1563

                    22                     23                     24
                     A                      A                      A
 Frequencies --  1075.6767              1084.2849              1156.8056
 Red. masses --     1.4889                 2.5171                 1.6607
 Frc consts  --     1.0150                 1.7436                 1.3094
 IR Inten    --     2.2490                17.0948                36.0583

                    25                     26                     27
                     A                      A                      A
 Frequencies --  1184.5451              1196.3142              1211.9098
 Red. masses --     1.2723                 1.0999                 1.8087
 Frc consts  --     1.0518                 0.9274                 1.5652
 IR Inten    --     0.8290                 2.3448                12.0044

                    28                     29                     30
                     A                      A                      A
 Frequencies --  1230.2975              1293.1789              1327.7770
 Red. masses --     1.9314                 3.9648                 1.4938
 Frc consts  --     1.7224                 3.9065                 1.5517
 IR Inten    --     1.9955               197.4069                10.4636

                    31                     32                     33
                     A                      A                      A
 Frequencies --  1367.9764              1444.7414              1485.5226
 Red. masses --     5.8076                 1.2521                 1.5513
 Frc consts  --     6.4033                 1.5398                 2.0170
 IR Inten    --    23.1114                 0.2442                28.9515

                    34                     35                     36
                     A                      A                      A
 Frequencies --  1506.1335              1507.9560              1520.2316
 Red. masses --     1.3489                 1.0449                 1.0484
 Frc consts  --     1.8029                 1.3999                 1.4276
 IR Inten    --     1.1168                 5.1767                 5.0479

                    37                     38                     39
                     A                      A                      A
 Frequencies --  1527.1812              1534.2672              1551.3081
 Red. masses --     1.3068                 1.1132                 2.0381
 Frc consts  --     1.7958                 1.5440                 2.8898
 IR Inten    --     4.0729                58.3542                49.6618

                    40                     41                     42
                     A                      A                      A
 Frequencies --  1646.7945              1662.2773              3023.8931
 Red. masses --     6.0706                 5.7072                 1.0347
 Frc consts  --     9.6998                 9.2914                 5.5744
 IR Inten    --     7.3732                32.0037                56.4164

                    43                     44                     45
                     A                      A                      A
 Frequencies --  3047.8520              3082.0130              3098.9854
 Red. masses --     1.0362                 1.1066                 1.1003
 Frc consts  --     5.6714                 6.1932                 6.2260
 IR Inten    --    29.1658                43.9330                19.1237

                    46                     47                     48
                     A                      A                      A
 Frequencies --  3128.7922              3153.9127              3176.8434
 Red. masses --     1.1025                 1.0997                 1.0867
 Frc consts  --     6.3591                 6.4451                 6.4619
 IR Inten    --    19.4402                26.3143                 9.2905

                    49                     50                     51
                     A                      A                      A
 Frequencies --  3187.5936              3206.3015              3221.9268
 Red. masses --     1.0887                 1.0948                 1.0927
 Frc consts  --     6.5177                 6.6314                 6.6829
 IR Inten    --    15.4696                31.9982                11.7293

 - Thermochemistry -
 -------------------
 Temperature   298.150 Kelvin.  Pressure   1.00000 Atm.
 Atom     1 has atomic number  6 and mass  12.00000

 Molecular mass:   122.07317 amu.
 Principal axes and moments of inertia in atomic units:
                           1         2         3
     Eigenvalues --   726.004041164.481601867.86960
           X            0.99916  -0.04109   0.00001
           Y            0.04109   0.99916   0.00000
           Z           -0.00001   0.00000   1.00000
 This molecule is an asymmetric top.
 Rotational symmetry number  1.
 Warning -- assumption of classical behavior for rotation
           may cause significant error
 Rotational temperatures (Kelvin)      0.11930     0.07438     0.04637
 Rotational constants (GHZ):           2.48586     1.54982     0.96620
 Zero-point vibrational energy     424082.8 (Joules/Mol)
                                  101.35822 (Kcal/Mol)
 Warning -- explicit consideration of  12 degrees of freedom as
           vibrations may cause significant error
 Vibrational temperatures:    131.84   203.88   246.59   332.64   351.46
          (Kelvin)            429.09   468.33   656.59   723.70   730.15
                              802.96   861.76  1043.01  1100.85  1102.38
                             1198.44  1230.86  1333.11  1392.65  1463.35
                             1544.84  1547.66  1560.04  1664.38  1704.29
                             1721.23  1743.67  1770.12  1860.59  1910.37
                             1968.21  2078.66  2137.33  2166.99  2169.61
                             2187.27  2197.27  2207.47  2231.98  2369.37
                             2391.64  4350.70  4385.17  4434.32  4458.74
                             4501.63  4537.77  4570.76  4586.23  4613.15
                             4635.63

 Zero-point correction=                           0.161525 (Hartree/Particle)
 Thermal correction to Energy=                    0.170016
 Thermal correction to Enthalpy=                  0.170960
 Thermal correction to Gibbs Free Energy=         0.128486
 Sum of electronic and zero-point Energies=           -385.928289
 Sum of electronic and thermal Energies=              -385.919798
 Sum of electronic and thermal Enthalpies=            -385.918853
 Sum of electronic and thermal Free Energies=         -385.961328

                     E (Thermal)             CV                S
                      KCal/Mol        Cal/Mol-Kelvin    Cal/Mol-Kelvin
 Total                  106.687             32.165             89.395
 Electronic               0.000              0.000              0.000
 Translational            0.889              2.981             40.313
 Rotational               0.889              2.981             28.848
 Vibrational            104.909             26.204             20.235
 Vibration     1          0.602              1.955              3.625
 Vibration     2          0.615              1.912              2.781
 Vibration     3          0.626              1.878              2.420
 Vibration     4          0.653              1.793              1.870
 Vibration     5          0.660              1.772              1.772
 Vibration     6          0.691              1.677              1.427
 Vibration     7          0.710              1.624              1.282
 Vibration     8          0.815              1.347              0.777
 Vibration     9          0.858              1.243              0.651
 Vibration    10          0.863              1.233              0.640
 Vibration    11          0.914              1.122              0.528
 Vibration    12          0.957              1.034              0.451

 Optimization completed.
    -- Stationary point found.
 Normal termination of Gaussian 09 at Tue Sep 28 17:02:49 2021.
 Gaussian 09:  AM64L-G09RevA.02 11-Jun-2009

 ----------------------------------------------------------------------
 #p TD(NStates=10, Root=1) b3lyp/6-31G* volume pop=NPA density=current
 Geom=AllCheck Guess=Read
 ----------------------------------------------------------------------

 COc1cccc(c1)C_conf_0
 --------------------
 Redundant internal coordinates taken from checkpoint file:
 C8H10O_6396_conf_0.chk
 Charge =  0 Multiplicity = 1

                         Standard orientation:
 ---------------------------------------------------------------------
 Center     Atomic      Atomic             Coordinates (Angstroms)
 Number     Number       Type             X           Y           Z
 ---------------------------------------------------------------------
      1          6           0        2.754180   -0.708768    0.000518
      2          8           0        1.756895    0.298016   -0.000411
      3          6           0        0.442187   -0.086731   -0.000305
      4          6           0        0.014952   -1.417319   -0.000348
      5          6           0       -1.353827   -1.706155   -0.000047
      6          6           0       -2.289103   -0.676801    0.000199
      7          6           0       -1.846834    0.650470    0.000233
      8          6           0       -0.490344    0.973009   -0.000051
      9          6           0       -0.006806    2.401079   -0.000021
     10          1           0        3.711245   -0.183297    0.000722
     11          1           0        2.689906   -1.343230   -0.893660
     12          1           0        2.689069   -1.342515    0.895127
     13          1           0        0.732463   -2.230141   -0.000680
     14          1           0       -1.677531   -2.743714   -0.000084
     15          1           0       -3.352764   -0.897150    0.000454
     16          1           0       -2.573455    1.460072    0.000469
     17          1           0       -0.850735    3.097730   -0.000133
     18          1           0        0.615150    2.612773   -0.878084
     19          1           0        0.615066    2.612646    0.878099
 ---------------------------------------------------------------------

 SCF Done:  E(RB3LYP) =  -386.089813589     A.U. after    1 cycles

 Excitation energies and oscillator strengths:

 Excited State   1:      Singlet-A      5.1861 eV  239.07 nm  f=0.0286  <S**2>=0.000
      32 -> 34         0.14694
      32 -> 35        -0.32281
      33 -> 34         0.58809
      33 -> 35         0.16661
 This state for optimization and/or second-order correction.
 Total Energy, E(TD-HF/TD-KS) =  -385.899229008
 Copying the excited state density for this state as the 1-particle RhoCI density.

 Excited State   2:      Singlet-A      5.8794 eV  210.88 nm  f=0.0827  <S**2>=0.000
      32 -> 34         0.33136
      33 -> 34        -0.22117
      33 -> 35         0.57795

 Excited State   3:      Singlet-A      6.8934 eV  179.86 nm  f=0.4294  <S**2>=0.000
      31 -> 34         0.18630
      32 -> 34        -0.15547
      32 -> 35         0.56024
      33 -> 34         0.30135
      33 -> 35         0.16754

 Excited State   4:      Singlet-A      6.9210 eV  179.14 nm  f=0.5291  <S**2>=0.000
      32 -> 34         0.57599
      32 -> 35         0.20305
      33 -> 35        -0.31496

 Excited State   5:      Singlet-A      7.3350 eV  169.03 nm  f=0.0009  <S**2>=0.000
      33 -> 36         0.68566
      33 -> 37        -0.15816

 Excited State   6:      Singlet-A      7.7092 eV  160.83 nm  f=0.0010  <S**2>=0.000
      30 -> 34         0.69336

 Excited State   7:      Singlet-A      7.7585 eV  159.80 nm  f=0.0053  <S**2>=0.000
      33 -> 36         0.15734
      33 -> 37         0.66171
      33 -> 38         0.14896

 Excited State   8:      Singlet-A      7.8999 eV  156.94 nm  f=0.0002  <S**2>=0.000
      30 -> 35         0.68778

 Excited State   9:      Singlet-A      7.9570 eV  155.82 nm  f=0.0040  <S**2>=0.000
      32 -> 36        -0.17872
      33 -> 37        -0.13618
      33 -> 38         0.65528

 Excited State  10:      Singlet-A      8.0571 eV  153.88 nm  f=0.0003  <S**2>=0.000
      32 -> 36         0.65263
      32 -> 37        -0.17676
      33 -> 38         0.17263

 The electronic state is 1-A.
 Alpha  occ. eigenvalues --  -19.17441 -10.23931 -10.23869 -10.18638 -10.18296
 Alpha  occ. eigenvalues --  -10.18131 -10.18032 -10.17578 -10.17389  -1.05943
 Alpha  occ. eigenvalues --   -0.84420  -0.76664  -0.74137  -0.69906  -0.67085
 Alpha  occ. eigenvalues --   -0.59167  -0.57743  -0.52367  -0.47813  -0.46854
 Alpha  occ. eigenvalues --   -0.46636  -0.43940  -0.41563  -0.40886  -0.39933
 Alpha  occ. eigenvalues --   -0.38030  -0.35774  -0.35705  -0.34314  -0.31831
 Alpha  occ. eigenvalues --   -0.31336  -0.23789  -0.21060
 Alpha virt. eigenvalues --    0.00893   0.01954   0.09591   0.10904   0.11680
 Alpha virt. eigenvalues --    0.14575   0.15126   0.15695   0.15886   0.16810
 Alpha virt. eigenvalues --    0.17823   0.19452   0.20740   0.20860   0.24322

 Mulliken atomic charges:
              1
     1  C   -0.224655
     2  O   -0.453750
     3  C    0.301291
     4  C   -0.197839
     5  C   -0.164868
     6  C   -0.106813
     7  C   -0.217667
     8  C    0.119939
     9  C   -0.511630
    10  H    0.175720
    11  H    0.169321
    12  H    0.169334
    13  H    0.121054
    14  H    0.119537
    15  H    0.129549
    16  H    0.111445
    17  H    0.147057
    18  H    0.156488
    19  H    0.156487
 Sum of Mulliken atomic charges =   0.00000

 Dipole moment (field-independent basis, Debye):
    X=              2.0170    Y=             -0.9409    Z=              0.0010  Tot=              2.2256
 Quadrupole moment (field-independent basis, Debye-Ang):
   XX=            -45.3655   YY=            -51.3761   ZZ=            -56.3547
   XY=             -3.0926   XZ=              0.0016   YZ=              0.0002

 Summary of Natural Population Analysis:

                                       Natural Population
                Natural  -----------------------------------------------
    Atom  No    Charge         Core      Valence    Rydberg      Total
 -----------------------------------------------------------------------
      C    1   -0.32297      1.99942     4.30937    0.01418     6.32297
      O    2   -0.44276      1.99975     6.43143    0.01157     8.44276
      C    3    0.32747      1.99874     3.65124    0.02255     5.67253
      C    4   -0.33138      1.99906     4.31488    0.01744     6.33138
      C    5   -0.27723      1.99915     4.25865    0.01944     6.27723
      C    6   -0.17006      1.99912     4.15462    0.01633     6.17006
      C    7   -0.28671      1.99908     4.26935    0.01829     6.28671
      C    8   -0.08996      1.99901     4.07300    0.01795     6.08996
      C    9   -0.68791      1.99941     4.68028    0.00822     6.68791
      H   10    0.23057      0.00000     0.76888    0.00055     0.76943
      H   11    0.21528      0.00000     0.78264    0.00208     0.78472
      H   12    0.21530      0.00000     0.78262    0.00208     0.78470
      H   13    0.22564      0.00000     0.77335    0.00101     0.77436
      H   14    0.22768      0.00000     0.77147    0.00086     0.77232
      H   15    0.22933      0.00000     0.76980    0.00087     0.77067
      H   16    0.22456      0.00000     0.77443    0.00101     0.77544
      H   17    0.23448      0.00000     0.76468    0.00083     0.76552
      H   18    0.23934      0.00000     0.75885    0.00180     0.76066
      H   19    0.23934      0.00000     0.75886    0.00180     0.76066
 =======================================================================
   * Total *    0.00000     17.99273    47.84840    0.15887    66.00000

 Normal termination of Gaussian 09 at Tue Sep 28 18:44:38 2021.
