 Gaussian 09, Revision A.02,

 -----------------------------------
 #p opt b3lyp/6-31G* scf=(xqc,tight)
 -----------------------------------

 -------------------
 C1CC=CCCC=C1_conf_0
 -------------------
 Symbolic Z-matrix:
 Charge =  0 Multiplicity = 1

 SCF Done:  E(RB3LYP) =  -311.982808015     A.U. after   14 cycles
 SCF Done:  E(RB3LYP) =  -311.991262159     A.U. after   14 cycles
 SCF Done:  E(RB3LYP) =  -311.992488339     A.U. after   14 cycles
 SCF Done:  E(RB3LYP) =  -311.992629398     A.U. after   13 cycles
 SCF Done:  E(RB3LYP) =  -311.992648717     A.U. after   13 cycles
 SCF Done:  E(RB3LYP) =  -311.992649667     A.U. after   13 cycles
 Optimization completed.
    -- Stationary point found.
 Normal termination of Gaussian 09 at Fri Oct  1 19:10:58 2021.

 ----------------------------------------------------------------------
 #p freq b3lyp/6-31G* volume NMR pop=NPA density=current Geom=AllCheck
 Guess=Read
 ----------------------------------------------------------------------

 C1CC=CCCC=C1_conf_0
 -------------------
 Redundant internal coordinates taken from checkpoint file:
 C8H12_7589_conf_0.chk
 Charge =  0 Multiplicity = 1

 SCF Done:  E(RB3LYP) =  -311.992649667     A.U. after    1 cycles

  1  C    Isotropic =   154.9969   Anisotropy =    13.3784

  2  C    Isotropic =   154.9973   Anisotropy =    13.3786

  3  C    Isotropic =    52.4900   Anisotropy =   152.7123

  4  C    Isotropic =    52.4886   Anisotropy =   152.7114

  5  C    Isotropic =   154.9979   Anisotropy =    13.3771

  6  C    Isotropic =   154.9980   Anisotropy =    13.3776

  7  C    Isotropic =    52.4876   Anisotropy =   152.7142

  8  C    Isotropic =    52.4912   Anisotropy =   152.7092

  9  H    Isotropic =    29.7748   Anisotropy =     4.8992

 10  H    Isotropic =    29.7763   Anisotropy =     7.3938

 11  H    Isotropic =    29.7749   Anisotropy =     4.8991

 12  H    Isotropic =    29.7763   Anisotropy =     7.3937

 13  H    Isotropic =    26.7949   Anisotropy =     4.0538

 14  H    Isotropic =    26.7949   Anisotropy =     4.0545

 15  H    Isotropic =    29.7763   Anisotropy =     7.3938

 16  H    Isotropic =    29.7748   Anisotropy =     4.8991

 17  H    Isotropic =    29.7749   Anisotropy =     4.8989

 18  H    Isotropic =    29.7763   Anisotropy =     7.3937

 19  H    Isotropic =    26.7949   Anisotropy =     4.0541

 20  H    Isotropic =    26.7950   Anisotropy =     4.0542

  Exact polarizability: 103.495   0.000  62.669  -0.000  -0.001  72.250
 Approx polarizability: 155.670  -0.000  87.139  -0.000  -0.001 120.044

                     1                      2                      3
                     A                      A                      A
 Frequencies --   195.0244               199.0434               233.7657
 Red. masses --     2.0574                 1.9893                 2.8687
 Frc consts  --     0.0461                 0.0464                 0.0924
 IR Inten    --     0.0000                 4.0807                 0.3364

                     4                      5                      6
                     A                      A                      A
 Frequencies --   282.8552               341.0075               427.2551
 Red. masses --     2.4267                 1.7251                 1.9040
 Frc consts  --     0.1144                 0.1182                 0.2048
 IR Inten    --     0.0502                 0.4351                 0.8739

                     7                      8                      9
                     A                      A                      A
 Frequencies --   441.0393               478.8945               520.3178
 Red. masses --     4.8713                 2.6802                 2.9834
 Frc consts  --     0.5583                 0.3622                 0.4759
 IR Inten    --     0.0000                 4.9536                 0.0000

                    10                     11                     12
                     A                      A                      A
 Frequencies --   567.9635               781.2785               803.9485
 Red. masses --     1.9949                 2.5605                 1.3034
 Frc consts  --     0.3791                 0.9208                 0.4963
 IR Inten    --     1.8828                22.5049                11.6299

                    13                     14                     15
                     A                      A                      A
 Frequencies --   839.7933               858.0523               890.7716
 Red. masses --     2.2430                 2.3736                 2.1755
 Frc consts  --     0.9320                 1.0296                 1.0170
 IR Inten    --     0.0000                15.8304                15.6382

                    16                     17                     18
                     A                      A                      A
 Frequencies --   894.4294               916.9384               946.5705
 Red. masses --     2.9255                 1.6886                 1.9712
 Frc consts  --     1.3789                 0.8365                 1.0406
 IR Inten    --     0.0000                 0.0238                 3.0209

                    19                     20                     21
                     A                      A                      A
 Frequencies --   970.1832              1040.9814              1053.6594
 Red. masses --     1.6969                 1.1322                 3.1075
 Frc consts  --     0.9411                 0.7229                 2.0327
 IR Inten    --    10.9889                51.6977                 0.1106

                    22                     23                     24
                     A                      A                      A
 Frequencies --  1055.0370              1055.4301              1129.1204
 Red. masses --     1.1677                 2.0294                 1.2340
 Frc consts  --     0.7658                 1.3319                 0.9269
 IR Inten    --     0.0000                 0.0038                 0.1901

                    25                     26                     27
                     A                      A                      A
 Frequencies --  1175.8566              1198.5925              1211.8913
 Red. masses --     2.2147                 1.1594                 1.1974
 Frc consts  --     1.8042                 0.9814                 1.0362
 IR Inten    --     0.0000                19.7247                 0.0000

                    28                     29                     30
                     A                      A                      A
 Frequencies --  1233.1181              1288.6498              1309.2299
 Red. masses --     1.3940                 1.2582                 1.1836
 Frc consts  --     1.2488                 1.2310                 1.1954
 IR Inten    --     4.4892                 0.7525                 0.0000

                    31                     32                     33
                     A                      A                      A
 Frequencies --  1332.6078              1337.7252              1356.7707
 Red. masses --     1.2861                 1.2546                 1.2750
 Frc consts  --     1.3457                 1.3228                 1.3829
 IR Inten    --     0.1169                 1.0287                 0.0000

                    34                     35                     36
                     A                      A                      A
 Frequencies --  1358.7745              1374.0105              1374.8451
 Red. masses --     1.1870                 1.4025                 1.3748
 Frc consts  --     1.2912                 1.5600                 1.5311
 IR Inten    --     0.3082                 0.0926                 0.7529

                    37                     38                     39
                     A                      A                      A
 Frequencies --  1511.9831              1512.4003              1521.1183
 Red. masses --     1.0995                 1.1023                 1.1093
 Frc consts  --     1.4810                 1.4856                 1.5122
 IR Inten    --    11.3301                 2.0995                 0.0000

                    40                     41                     42
                     A                      A                      A
 Frequencies --  1521.1680              1711.3340              1713.2169
 Red. masses --     1.1161                 5.5310                 5.6900
 Frc consts  --     1.5216                 9.5438                 9.8398
 IR Inten    --     0.0260                 4.6841                 0.0000

                    43                     44                     45
                     A                      A                      A
 Frequencies --  3044.9068              3045.3619              3049.4131
 Red. masses --     1.0583                 1.0583                 1.0589
 Frc consts  --     5.7812                 5.7828                 5.8017
 IR Inten    --     7.0002                38.0300               134.8692

                    46                     47                     48
                     A                      A                      A
 Frequencies --  3051.8188              3084.9653              3086.4804
 Red. masses --     1.0596                 1.1032                 1.1041
 Frc consts  --     5.8143                 6.1859                 6.1972
 IR Inten    --     0.0001                65.3285                 0.0000

                    49                     50                     51
                     A                      A                      A
 Frequencies --  3095.4584              3095.7854              3111.5752
 Red. masses --     1.1025                 1.1004                 1.0949
 Frc consts  --     6.2242                 6.2138                 6.2459
 IR Inten    --    20.6506                 0.2268                 5.5959

                    52                     53                     54
                     A                      A                      A
 Frequencies --  3113.3565              3115.8410              3124.3022
 Red. masses --     1.0875                 1.0904                 1.0888
 Frc consts  --     6.2108                 6.2372                 6.2618
 IR Inten    --     0.4692                 0.0000               145.1528

 - Thermochemistry -
 -------------------
 Temperature   298.150 Kelvin.  Pressure   1.00000 Atm.
 Atom     1 has atomic number  6 and mass  12.00000

 Molecular mass:   108.09390 amu.
 Principal axes and moments of inertia in atomic units:
                           1         2         3
     Eigenvalues --   536.03407 909.262331283.82754
           X            1.00000   0.00000  -0.00000
           Y           -0.00000   1.00000  -0.00000
           Z            0.00000   0.00000   1.00000
 This molecule is an asymmetric top.
 Rotational symmetry number  1.
 Warning -- assumption of classical behavior for rotation
           may cause significant error
 Rotational temperatures (Kelvin)      0.16158     0.09526     0.06747
 Rotational constants (GHZ):           3.36684     1.98484     1.40575
 Zero-point vibrational energy     472440.7 (Joules/Mol)
                                  112.91604 (Kcal/Mol)
 Warning -- explicit consideration of  10 degrees of freedom as
           vibrations may cause significant error
 Vibrational temperatures:    280.60   286.38   336.34   406.97   490.63
          (Kelvin)            614.72   634.56   689.02   748.62   817.17
                             1124.08  1156.70  1208.27  1234.54  1281.62
                             1286.88  1319.27  1361.90  1395.88  1497.74
                             1515.98  1517.96  1518.53  1624.55  1691.79
                             1724.51  1743.64  1774.18  1854.08  1883.69
                             1917.32  1924.69  1952.09  1954.97  1976.89
                             1978.09  2175.40  2176.00  2188.55  2188.62
                             2462.22  2464.93  4380.94  4381.59  4387.42
                             4390.88  4438.57  4440.75  4453.67  4454.14
                             4476.86  4479.42  4482.99  4495.17

 Zero-point correction=                           0.179943 (Hartree/Particle)
 Thermal correction to Energy=                    0.187261
 Thermal correction to Enthalpy=                  0.188205
 Thermal correction to Gibbs Free Energy=         0.149024
 Sum of electronic and zero-point Energies=           -311.812707
 Sum of electronic and thermal Energies=              -311.805389
 Sum of electronic and thermal Enthalpies=            -311.804445
 Sum of electronic and thermal Free Energies=         -311.843626

                     E (Thermal)             CV                S
                      KCal/Mol        Cal/Mol-Kelvin    Cal/Mol-Kelvin
 Total                  117.508             29.706             82.464
 Electronic               0.000              0.000              0.000
 Translational            0.889              2.981             39.950
 Rotational               0.889              2.981             27.928
 Vibrational            115.731             23.744             14.586
 Vibration     1          0.636              1.847              2.180
 Vibration     2          0.637              1.841              2.142
 Vibration     3          0.654              1.789              1.850
 Vibration     4          0.682              1.705              1.516
 Vibration     5          0.721              1.594              1.207
 Vibration     6          0.789              1.411              0.868
 Vibration     7          0.801              1.381              0.823
 Vibration     8          0.835              1.297              0.713
 Vibration     9          0.875              1.205              0.609
 Vibration    10          0.924              1.101              0.508

 Optimization completed.
    -- Stationary point found.
 Normal termination of Gaussian 09 at Fri Oct  1 19:53:04 2021.
 Gaussian 09:  AM64L-G09RevA.02 11-Jun-2009

 ----------------------------------------------------------------------
 #p TD(NStates=10, Root=1) b3lyp/6-31G* volume pop=NPA density=current
 Geom=AllCheck Guess=Read
 ----------------------------------------------------------------------

 C1CC=CCCC=C1_conf_0
 -------------------
 Redundant internal coordinates taken from checkpoint file:
 C8H12_7589_conf_0.chk
 Charge =  0 Multiplicity = 1

                         Standard orientation:
 ---------------------------------------------------------------------
 Center     Atomic      Atomic             Coordinates (Angstroms)
 Number     Number       Type             X           Y           Z
 ---------------------------------------------------------------------
      1          6           0       -1.882969    0.789546    0.111781
      2          6           0       -1.882876   -0.789649   -0.111823
      3          6           0       -0.550840   -1.299929    0.382370
      4          6           0        0.550947   -1.299939   -0.382328
      5          6           0        1.882975   -0.789546    0.111771
      6          6           0        1.882883    0.789649   -0.111811
      7          6           0        0.550834    1.299906    0.382382
      8          6           0       -0.550951    1.299963   -0.382317
      9          1           0       -2.001453    0.991786    1.183586
     10          1           0       -2.746558    1.223390   -0.407027
     11          1           0       -2.001290   -0.991914   -1.183632
     12          1           0       -2.746448   -1.223574    0.406947
     13          1           0       -0.419049   -1.265676    1.467009
     14          1           0        0.419137   -1.265781   -1.466966
     15          1           0        2.746553   -1.223389   -0.407057
     16          1           0        2.001466   -0.991807    1.183570
     17          1           0        2.001300    0.991931   -1.183616
     18          1           0        2.746443    1.223576    0.406974
     19          1           0        0.419035    1.265590    1.467017
     20          1           0       -0.419152    1.265866   -1.466958
 ---------------------------------------------------------------------

 SCF Done:  E(RB3LYP) =  -311.992649667     A.U. after    1 cycles

 Excitation energies and oscillator strengths:

 Excited State   1:      Singlet-A      4.8583 eV  255.20 nm  f=0.0258  <S**2>=0.000
      29 -> 32        -0.18507
      30 -> 31         0.67960
 This state for optimization and/or second-order correction.
 Total Energy, E(TD-HF/TD-KS) =  -311.814109520
 Copying the excited state density for this state as the 1-particle RhoCI density.

 Excited State   2:      Singlet-A      5.2337 eV  236.90 nm  f=0.0028  <S**2>=0.000
      29 -> 31         0.65238
      30 -> 32        -0.27043

 Excited State   3:      Singlet-A      6.3043 eV  196.67 nm  f=0.0280  <S**2>=0.000
      29 -> 31         0.26232
      30 -> 32         0.64432

 Excited State   4:      Singlet-A      6.8337 eV  181.43 nm  f=0.1499  <S**2>=0.000
      28 -> 31        -0.39699
      29 -> 32         0.56199
      30 -> 31         0.11052

 Excited State   5:      Singlet-A      7.2163 eV  171.81 nm  f=0.0010  <S**2>=0.000
      28 -> 31         0.19573
      30 -> 33         0.67089

 Excited State   6:      Singlet-A      7.4729 eV  165.91 nm  f=0.0006  <S**2>=0.000
      27 -> 31         0.68308
      28 -> 32         0.13598

 Excited State   7:      Singlet-A      7.6690 eV  161.67 nm  f=0.3587  <S**2>=0.000
      25 -> 31         0.10831
      28 -> 31         0.52294
      29 -> 32         0.36410
      30 -> 31         0.15314
      30 -> 33        -0.19303

 Excited State   8:      Singlet-A      7.7947 eV  159.06 nm  f=0.0003  <S**2>=0.000
      26 -> 31         0.69990

 Excited State   9:      Singlet-A      7.8252 eV  158.44 nm  f=0.0002  <S**2>=0.000
      29 -> 33        -0.17319
      30 -> 34         0.67939

 Excited State  10:      Singlet-A      7.8493 eV  157.96 nm  f=0.0250  <S**2>=0.000
      25 -> 31         0.67418
      27 -> 32         0.12009
      28 -> 31        -0.10826

 The electronic state is 1-A.
 Alpha  occ. eigenvalues --  -10.18994 -10.18994 -10.18979 -10.18979 -10.17608
 Alpha  occ. eigenvalues --  -10.17605 -10.17523 -10.17523  -0.82931  -0.77277
 Alpha  occ. eigenvalues --   -0.75920  -0.67079  -0.65530  -0.57467  -0.55348
 Alpha  occ. eigenvalues --   -0.53540  -0.46750  -0.46066  -0.43141  -0.41012
 Alpha  occ. eigenvalues --   -0.40350  -0.39527  -0.37661  -0.35466  -0.34863
 Alpha  occ. eigenvalues --   -0.33735  -0.33042  -0.32136  -0.23726  -0.21222
 Alpha virt. eigenvalues --   -0.01111   0.03222   0.09407   0.11088   0.11434
 Alpha virt. eigenvalues --    0.15012   0.15746   0.15815   0.16814   0.16860
 Alpha virt. eigenvalues --    0.17438   0.19857   0.20090   0.20984   0.22535

 Mulliken atomic charges:
              1
     1  C   -0.295241
     2  C   -0.295228
     3  C   -0.109567
     4  C   -0.109562
     5  C   -0.295241
     6  C   -0.295228
     7  C   -0.109566
     8  C   -0.109565
     9  H    0.141443
    10  H    0.136403
    11  H    0.141442
    12  H    0.136402
    13  H    0.126955
    14  H    0.126954
    15  H    0.136404
    16  H    0.141443
    17  H    0.141442
    18  H    0.136403
    19  H    0.126954
    20  H    0.126954
 Sum of Mulliken atomic charges =  -0.00000

 Dipole moment (field-independent basis, Debye):
    X=              0.0000    Y=             -0.0000    Z=             -0.0001  Tot=              0.0001
 Quadrupole moment (field-independent basis, Debye-Ang):
   XX=            -47.7791   YY=            -56.3084   ZZ=            -47.7272
   XY=              0.0003   XZ=             -0.0000   YZ=             -0.0002

 Summary of Natural Population Analysis:

                                       Natural Population
                Natural  -----------------------------------------------
    Atom  No    Charge         Core      Valence    Rydberg      Total
 -----------------------------------------------------------------------
      C    1   -0.47516      1.99929     4.46262    0.01326     6.47516
      C    2   -0.47516      1.99929     4.46262    0.01326     6.47516
      C    3   -0.21980      1.99898     4.19702    0.02380     6.21980
      C    4   -0.21980      1.99898     4.19702    0.02380     6.21980
      C    5   -0.47516      1.99929     4.46262    0.01326     6.47516
      C    6   -0.47516      1.99929     4.46262    0.01326     6.47516
      C    7   -0.21980      1.99898     4.19702    0.02380     6.21980
      C    8   -0.21980      1.99898     4.19702    0.02380     6.21980
      H    9    0.23186      0.00000     0.76644    0.00170     0.76814
      H   10    0.24290      0.00000     0.75419    0.00291     0.75710
      H   11    0.23186      0.00000     0.76644    0.00170     0.76814
      H   12    0.24290      0.00000     0.75419    0.00291     0.75710
      H   13    0.22020      0.00000     0.77820    0.00160     0.77980
      H   14    0.22020      0.00000     0.77820    0.00160     0.77980
      H   15    0.24290      0.00000     0.75419    0.00291     0.75710
      H   16    0.23186      0.00000     0.76644    0.00170     0.76814
      H   17    0.23186      0.00000     0.76644    0.00170     0.76814
      H   18    0.24290      0.00000     0.75419    0.00291     0.75710
      H   19    0.22020      0.00000     0.77820    0.00160     0.77980
      H   20    0.22020      0.00000     0.77820    0.00160     0.77980
 =======================================================================
   * Total *   -0.00000     15.99306    43.83387    0.17307    60.00000

 Normal termination of Gaussian 09 at Fri Oct  1 23:00:39 2021.
