 Gaussian 09, Revision A.02,

 -----------------------------------
 #p opt b3lyp/6-31G* scf=(xqc,tight)
 -----------------------------------

 --------------------------
 CN(c1ccc(cc1)[Li])C_conf_0
 --------------------------
 Symbolic Z-matrix:
 Charge =  0 Multiplicity = 1

 SCF Done:  E(RB3LYP) =  -373.090353157     A.U. after   15 cycles
 SCF Done:  E(RB3LYP) =  -373.099216331     A.U. after   14 cycles
 SCF Done:  E(RB3LYP) =  -373.100008393     A.U. after   11 cycles
 SCF Done:  E(RB3LYP) =  -373.100130027     A.U. after   10 cycles
 SCF Done:  E(RB3LYP) =  -373.100195438     A.U. after    9 cycles
 SCF Done:  E(RB3LYP) =  -373.100296052     A.U. after   10 cycles
 SCF Done:  E(RB3LYP) =  -373.098751898     A.U. after   12 cycles
 SCF Done:  E(RB3LYP) =  -373.100356955     A.U. after   11 cycles
 SCF Done:  E(RB3LYP) =  -373.100718283     A.U. after   10 cycles
 SCF Done:  E(RB3LYP) =  -373.052723790     A.U. after   14 cycles
 SCF Done:  E(RB3LYP) =  -373.102903755     A.U. after   13 cycles
 SCF Done:  E(RB3LYP) =  -373.102996491     A.U. after    9 cycles
 SCF Done:  E(RB3LYP) =  -373.103003460     A.U. after   13 cycles
 SCF Done:  E(RB3LYP) =  -373.103005340     A.U. after    7 cycles
 SCF Done:  E(RB3LYP) =  -373.102997284     A.U. after    8 cycles
 SCF Done:  E(RB3LYP) =  -373.102998323     A.U. after    9 cycles
 SCF Done:  E(RB3LYP) =  -373.102998398     A.U. after   15 cycles
 SCF Done:  E(RB3LYP) =  -373.102998414     A.U. after   15 cycles
 Optimization completed.
    -- Stationary point found.
 Normal termination of Gaussian 09 at Sat Oct  2 23:16:03 2021.

 ----------------------------------------------------------------------
 #p freq b3lyp/6-31G* volume NMR pop=NPA density=current Geom=AllCheck
 Guess=Read
 ----------------------------------------------------------------------

 CN(c1ccc(cc1)[Li])C_conf_0
 --------------------------
 Redundant internal coordinates taken from checkpoint file:
 C8H10LiN_4800_conf_0.chk
 Charge =  0 Multiplicity = 1

 SCF Done:  E(RB3LYP) =  -373.102998414     A.U. after    1 cycles

  1  C    Isotropic =   150.1307   Anisotropy =    52.4746

  2  N    Isotropic =   212.2858   Anisotropy =    93.7825

  3  C    Isotropic =    53.4796   Anisotropy =   151.0283

  4  C    Isotropic =    85.6834   Anisotropy =   133.1967

  5  C    Isotropic =    52.6357   Anisotropy =   152.4344

  6  C    Isotropic =    47.6018   Anisotropy =   219.3829

  7  C    Isotropic =    52.6404   Anisotropy =   152.4725

  8  C    Isotropic =    85.6784   Anisotropy =   133.2019

  9  Li   Isotropic =    90.6859   Anisotropy =    15.6765

 10  C    Isotropic =   150.1316   Anisotropy =    52.4766

 11  H    Isotropic =    29.1763   Anisotropy =     9.3245

 12  H    Isotropic =    29.7955   Anisotropy =     7.4542

 13  H    Isotropic =    29.1760   Anisotropy =     9.3238

 14  H    Isotropic =    26.2802   Anisotropy =     9.4345

 15  H    Isotropic =    24.6361   Anisotropy =     7.0392

 16  H    Isotropic =    24.6366   Anisotropy =     7.0410

 17  H    Isotropic =    26.2796   Anisotropy =     9.4349

 18  H    Isotropic =    29.7955   Anisotropy =     7.4543

 19  H    Isotropic =    29.1765   Anisotropy =     9.3242

 20  H    Isotropic =    29.1763   Anisotropy =     9.3244

  Exact polarizability: 186.607   0.014 108.056   0.029   0.011  63.663
 Approx polarizability: 242.503   0.003 174.897   0.001   0.000  86.724

 ******    1 imaginary frequencies (negative Signs) ******

                     1                      2                      3
                     A                      A                      A
 Frequencies --  -111.6456                71.6586                90.2180
 Red. masses --     2.2577                 2.4922                 4.3917
 Frc consts  --     0.0166                 0.0075                 0.0211
 IR Inten    --     1.8860                 0.0000                57.6454

                     4                      5                      6
                     A                      A                      A
 Frequencies --   109.6389               169.7994               213.3756
 Red. masses --     6.3746                 1.8305                 1.0822
 Frc consts  --     0.0451                 0.0311                 0.0290
 IR Inten    --    78.8490                18.6001                 0.0000

                     7                      8                      9
                     A                      A                      A
 Frequencies --   254.0849               286.8648               367.8643
 Red. masses --     3.2192                 2.8728                 4.0093
 Frc consts  --     0.1224                 0.1393                 0.3197
 IR Inten    --     4.0603                27.3694                 7.3250

                    10                     11                     12
                     A                      A                      A
 Frequencies --   403.2730               473.6171               507.3343
 Red. masses --     2.9044                 3.6511                 3.7291
 Frc consts  --     0.2783                 0.4825                 0.5655
 IR Inten    --     0.0000                 1.5800                22.0244

                    13                     14                     15
                     A                      A                      A
 Frequencies --   529.0793               620.0535               651.2285
 Red. masses --     2.7096                 4.8506                 7.1420
 Frc consts  --     0.4469                 1.0988                 1.7846
 IR Inten    --     9.8174                20.6283                 0.1059

                    16                     17                     18
                     A                      A                      A
 Frequencies --   722.8390               765.2801               805.3222
 Red. masses --     3.0340                 5.3213                 1.8936
 Frc consts  --     0.9340                 1.8362                 0.7236
 IR Inten    --     0.5363                 0.8648                32.9714

                    19                     20                     21
                     A                      A                      A
 Frequencies --   817.9154               933.8872               948.3889
 Red. masses --     1.2506                 1.2463                 1.3661
 Frc consts  --     0.4929                 0.6404                 0.7239
 IR Inten    --     0.0001                 1.2936                 0.0000

                    22                     23                     24
                     A                      A                      A
 Frequencies --   973.8915              1010.8412              1078.1604
 Red. masses --     3.2837                 5.4317                 2.7634
 Frc consts  --     1.8350                 3.2700                 1.8926
 IR Inten    --    10.4774                 2.0566                27.4343

                    25                     26                     27
                     A                      A                      A
 Frequencies --  1094.0196              1137.6278              1146.7770
 Red. masses --     1.4920                 1.7595                 1.2922
 Frc consts  --     1.0521                 1.3417                 1.0012
 IR Inten    --    26.4412                 4.5691                 0.0146

                    28                     29                     30
                     A                      A                      A
 Frequencies --  1168.7244              1206.8596              1242.8810
 Red. masses --     1.2356                 1.6763                 1.1644
 Frc consts  --     0.9943                 1.4385                 1.0598
 IR Inten    --     0.0000                33.1730                23.3804

                    31                     32                     33
                     A                      A                      A
 Frequencies --  1277.6485              1318.9977              1374.4250
 Red. masses --     4.3696                 2.2172                 1.9582
 Frc consts  --     4.2025                 2.2727                 2.1794
 IR Inten    --    77.9182                 0.6179                 6.1709

                    34                     35                     36
                     A                      A                      A
 Frequencies --  1386.7533              1438.3437              1475.6406
 Red. masses --     3.4628                 2.1877                 1.2071
 Frc consts  --     3.9236                 2.6666                 1.5487
 IR Inten    --   264.4382                 0.0280                 2.8859

                    37                     38                     39
                     A                      A                      A
 Frequencies --  1505.5304              1511.9235              1513.3239
 Red. masses --     1.0403                 1.0469                 1.2769
 Frc consts  --     1.3892                 1.4100                 1.7229
 IR Inten    --     0.0000                 5.3707                15.9838

                    40                     41                     42
                     A                      A                      A
 Frequencies --  1541.3138              1548.4517              1563.6734
 Red. masses --     1.9806                 1.0881                 1.0704
 Frc consts  --     2.7723                 1.5372                 1.5420
 IR Inten    --     6.6935                10.4457               104.7401

                    43                     44                     45
                     A                      A                      A
 Frequencies --  1582.4674              1639.4268              2990.9682
 Red. masses --     4.8475                 4.7226                 1.0383
 Frc consts  --     7.1522                 7.4785                 5.4724
 IR Inten    --    12.3898               244.1174               129.0330

                    46                     47                     48
                     A                      A                      A
 Frequencies --  3001.3025              3028.1572              3029.3734
 Red. masses --     1.0421                 1.1021                 1.1063
 Frc consts  --     5.5305                 5.9545                 5.9816
 IR Inten    --    70.7278                 0.0012               111.7759

                    49                     50                     51
                     A                      A                      A
 Frequencies --  3094.9604              3095.2631              3129.6720
 Red. masses --     1.0865                 1.0870                 1.0956
 Frc consts  --     6.1319                 6.1361                 6.3227
 IR Inten    --    25.4215                68.4327                 1.3903

                    52                     53                     54
                     A                      A                      A
 Frequencies --  3143.3640              3195.5863              3195.9498
 Red. masses --     1.0928                 1.0893                 1.0896
 Frc consts  --     6.3620                 6.5538                 6.5572
 IR Inten    --    61.6931                48.6992                26.8385

 - Thermochemistry -
 -------------------
 Temperature   298.150 Kelvin.  Pressure   1.00000 Atm.
 Atom     1 has atomic number  6 and mass  12.00000

 Molecular mass:   127.09733 amu.
 Principal axes and moments of inertia in atomic units:
                           1         2         3
     Eigenvalues --   514.500721963.757752455.58239
           X            1.00000   0.00002   0.00001
           Y           -0.00002   1.00000  -0.00000
           Z           -0.00001   0.00000   1.00000
 This molecule is an asymmetric top.
 Rotational symmetry number  1.
 Warning -- assumption of classical behavior for rotation
           may cause significant error
 Rotational temperatures (Kelvin)      0.16835     0.04411     0.03527
 Rotational constants (GHZ):           3.50775     0.91902     0.73495
    1 imaginary frequencies ignored.
 Zero-point vibrational energy     426971.3 (Joules/Mol)
                                  102.04858 (Kcal/Mol)
 Warning -- explicit consideration of  13 degrees of freedom as
           vibrations may cause significant error
 Vibrational temperatures:    103.10   129.80   157.75   244.30   307.00
          (Kelvin)            365.57   412.73   529.27   580.22   681.43
                              729.94   761.23   892.12   936.97  1040.00
                             1101.07  1158.68  1176.80  1343.65  1364.52
                             1401.21  1454.37  1551.23  1574.05  1636.79
                             1649.95  1681.53  1736.40  1788.23  1838.25
                             1897.74  1977.49  1995.23  2069.45  2123.12
                             2166.12  2175.32  2177.33  2217.60  2227.87
                             2249.77  2276.81  2358.77  4303.33  4318.20
                             4356.84  4358.59  4452.95  4453.39  4502.89
                             4522.59  4597.73  4598.25

 Zero-point correction=                           0.162625 (Hartree/Particle)
 Thermal correction to Energy=                    0.172121
 Thermal correction to Enthalpy=                  0.173066
 Thermal correction to Gibbs Free Energy=         0.127881
 Sum of electronic and zero-point Energies=           -372.940374
 Sum of electronic and thermal Energies=              -372.930877
 Sum of electronic and thermal Enthalpies=            -372.929933
 Sum of electronic and thermal Free Energies=         -372.975117

                     E (Thermal)             CV                S
                      KCal/Mol        Cal/Mol-Kelvin    Cal/Mol-Kelvin
 Total                  108.008             34.937             95.099
 Electronic               0.000              0.000              0.000
 Translational            0.889              2.981             40.433
 Rotational               0.889              2.981             29.296
 Vibrational            106.230             28.976             25.370
 Vibration     1          0.598              1.968              4.107
 Vibration     2          0.602              1.956              3.655
 Vibration     3          0.606              1.941              3.275
 Vibration     4          0.625              1.880              2.438
 Vibration     5          0.644              1.821              2.015
 Vibration     6          0.665              1.756              1.702
 Vibration     7          0.684              1.698              1.492
 Vibration     8          0.740              1.538              1.089
 Vibration     9          0.769              1.463              0.951
 Vibration    10          0.830              1.309              0.727
 Vibration    11          0.863              1.234              0.640
 Vibration    12          0.884              1.186              0.589
 Vibration    13          0.980              0.990              0.416

 Normal termination of Gaussian 09 at Sun Oct  3 00:15:30 2021.
 Gaussian 09:  AM64L-G09RevA.02 11-Jun-2009

 ----------------------------------------------------------------------
 #p TD(NStates=10, Root=1) b3lyp/6-31G* volume pop=NPA density=current
 Geom=AllCheck Guess=Read
 ----------------------------------------------------------------------

 CN(c1ccc(cc1)[Li])C_conf_0
 --------------------------
 Redundant internal coordinates taken from checkpoint file:
 C8H10LiN_4800_conf_0.chk
 Charge =  0 Multiplicity = 1

                         Standard orientation:
 ---------------------------------------------------------------------
 Center     Atomic      Atomic             Coordinates (Angstroms)
 Number     Number       Type             X           Y           Z
 ---------------------------------------------------------------------
      1          6           0       -2.457581    1.253284   -0.000022
      2          7           0       -1.734300   -0.000141   -0.000120
      3          6           0       -0.340831    0.000023   -0.000001
      4          6           0        0.397153   -1.202774    0.000031
      5          6           0        1.793025   -1.180419    0.000099
      6          6           0        2.571944    0.000443    0.000151
      7          6           0        1.792718    1.181073    0.000099
      8          6           0        0.396857    1.203018    0.000036
      9          3           0        4.534918   -0.001322   -0.000555
     10          6           0       -2.457306   -1.253720   -0.000017
     11          1           0       -2.230127    1.863729    0.887570
     12          1           0       -3.530949    1.050766   -0.000275
     13          1           0       -2.229798    1.863992   -0.887344
     14          1           0       -0.116667   -2.159274   -0.000015
     15          1           0        2.287321   -2.155658    0.000148
     16          1           0        2.286789    2.156407    0.000151
     17          1           0       -0.117228    2.159376    0.000000
     18          1           0       -3.530723   -1.051451   -0.000103
     19          1           0       -2.229614   -1.864160    0.887515
     20          1           0       -2.229525   -1.864345   -0.887400
 ---------------------------------------------------------------------

 SCF Done:  E(RB3LYP) =  -373.102998414     A.U. after    2 cycles

 Excitation energies and oscillator strengths:

 Excited State   1:      Singlet-A      2.2067 eV  561.84 nm  f=0.0073  <S**2>=0.000
      34 -> 35         0.70463
 This state for optimization and/or second-order correction.
 Total Energy, E(TD-HF/TD-KS) =  -373.021902141
 Copying the excited state density for this state as the 1-particle RhoCI density.

 Excited State   2:      Singlet-A      2.9503 eV  420.25 nm  f=0.1067  <S**2>=0.000
      33 -> 35         0.70314

 Excited State   3:      Singlet-A      3.5699 eV  347.30 nm  f=0.0000  <S**2>=0.000
      32 -> 35         0.70519

 Excited State   4:      Singlet-A      3.6905 eV  335.95 nm  f=0.0000  <S**2>=0.000
      34 -> 37         0.70355

 Excited State   5:      Singlet-A      3.8003 eV  326.25 nm  f=0.2564  <S**2>=0.000
      34 -> 36         0.70331

 Excited State   6:      Singlet-A      4.2106 eV  294.46 nm  f=0.0272  <S**2>=0.000
      33 -> 37         0.69412
      34 -> 38         0.12554

 Excited State   7:      Singlet-A      4.2639 eV  290.78 nm  f=0.0759  <S**2>=0.000
      33 -> 36         0.70344

 Excited State   8:      Singlet-A      4.6678 eV  265.62 nm  f=0.0342  <S**2>=0.000
      32 -> 36        -0.36471
      32 -> 40         0.15308
      33 -> 37        -0.10604
      34 -> 38         0.57528

 Excited State   9:      Singlet-A      4.6824 eV  264.79 nm  f=0.0034  <S**2>=0.000
      31 -> 35         0.69868

 Excited State  10:      Singlet-A      5.0070 eV  247.62 nm  f=0.0000  <S**2>=0.000
      33 -> 38         0.70650

 The electronic state is 1-A.
 Alpha  occ. eigenvalues --  -14.32301 -10.19699 -10.19698 -10.18612 -10.13847
 Alpha  occ. eigenvalues --  -10.13845 -10.13752 -10.13751 -10.09846  -1.99027
 Alpha  occ. eigenvalues --   -0.91632  -0.78713  -0.71159  -0.69321  -0.68371
 Alpha  occ. eigenvalues --   -0.61538  -0.55022  -0.52641  -0.49112  -0.44521
 Alpha  occ. eigenvalues --   -0.43880  -0.40766  -0.39797  -0.38690  -0.37880
 Alpha  occ. eigenvalues --   -0.37141  -0.35469  -0.35256  -0.31758  -0.28130
 Alpha  occ. eigenvalues --   -0.23923  -0.19950  -0.18187  -0.15035
 Alpha virt. eigenvalues --   -0.04539   0.00851   0.00967   0.04895   0.06354
 Alpha virt. eigenvalues --    0.06637   0.10961   0.12208   0.12350   0.13087
 Alpha virt. eigenvalues --    0.13915   0.14976   0.16247   0.18943   0.19155

 Mulliken atomic charges:
              1
     1  C   -0.336455
     2  N   -0.415127
     3  C    0.355672
     4  C   -0.146323
     5  C   -0.195142
     6  C   -0.023717
     7  C   -0.195374
     8  C   -0.146326
     9  Li  -0.316739
    10  C   -0.336460
    11  H    0.201621
    12  H    0.182971
    13  H    0.201627
    14  H    0.138060
    15  H    0.153748
    16  H    0.153694
    17  H    0.138048
    18  H    0.182971
    19  H    0.201624
    20  H    0.201629
 Sum of Mulliken atomic charges =  -0.00000

 Dipole moment (field-independent basis, Debye):
    X=            -16.8751    Y=              0.0056    Z=              0.0065  Tot=             16.8751
 Quadrupole moment (field-independent basis, Debye-Ang):
   XX=           -125.0498   YY=            -53.5589   ZZ=            -64.2114
   XY=              0.0388   XZ=              0.0403   YZ=             -0.0000

 Summary of Natural Population Analysis:

                                       Natural Population
                Natural  -----------------------------------------------
    Atom  No    Charge         Core      Valence    Rydberg      Total
 -----------------------------------------------------------------------
      C    1   -0.48675      1.99945     4.47490    0.01239     6.48675
      N    2   -0.29709      1.99935     5.28785    0.00989     7.29709
      C    3    0.19115      1.99900     3.79185    0.01799     5.80885
      C    4   -0.24510      1.99905     4.23421    0.01185     6.24510
      C    5   -0.23388      1.99917     4.21777    0.01694     6.23388
      C    6   -0.33607      1.99934     4.31312    0.02361     6.33607
      C    7   -0.23384      1.99917     4.21772    0.01695     6.23384
      C    8   -0.24513      1.99905     4.23424    0.01185     6.24513
     Li    9   -0.07443      1.99877     1.07317    0.00248     3.07443
      C   10   -0.48675      1.99945     4.47491    0.01239     6.48675
      H   11    0.25196      0.00000     0.74712    0.00093     0.74804
      H   12    0.24686      0.00000     0.75274    0.00040     0.75314
      H   13    0.25196      0.00000     0.74711    0.00093     0.74804
      H   14    0.23423      0.00000     0.76444    0.00133     0.76577
      H   15    0.23731      0.00000     0.76177    0.00092     0.76269
      H   16    0.23731      0.00000     0.76177    0.00092     0.76269
      H   17    0.23423      0.00000     0.76444    0.00133     0.76577
      H   18    0.24686      0.00000     0.75274    0.00040     0.75314
      H   19    0.25196      0.00000     0.74712    0.00093     0.74804
      H   20    0.25196      0.00000     0.74711    0.00093     0.74804
 =======================================================================
   * Total *   -0.00325     19.99178    47.86610    0.14537    68.00325

 Normal termination of Gaussian 09 at Sun Oct  3 03:38:55 2021.
