 Gaussian 09, Revision A.02,

 -----------------------------------
 #p opt b3lyp/6-31G* scf=(xqc,tight)
 -----------------------------------

 --------------------
 Cc1cccc(c1N)C_conf_0
 --------------------
 Symbolic Z-matrix:
 Charge =  0 Multiplicity = 1

 SCF Done:  E(RB3LYP) =  -366.234366612     A.U. after   14 cycles
 SCF Done:  E(RB3LYP) =  -366.237078402     A.U. after   15 cycles
 SCF Done:  E(RB3LYP) =  -366.237164552     A.U. after   11 cycles
 SCF Done:  E(RB3LYP) =  -366.237173432     A.U. after    8 cycles
 SCF Done:  E(RB3LYP) =  -366.237175196     A.U. after    8 cycles
 SCF Done:  E(RB3LYP) =  -366.237175745     A.U. after    8 cycles
 Optimization completed.
    -- Stationary point found.
 Normal termination of Gaussian 09 at Mon Oct  4 22:28:15 2021.

 ----------------------------------------------------------------------
 #p freq b3lyp/6-31G* volume NMR pop=NPA density=current Geom=AllCheck
 Guess=Read
 ----------------------------------------------------------------------

 Cc1cccc(c1N)C_conf_0
 --------------------
 Redundant internal coordinates taken from checkpoint file:
 C8H11N_ada2_conf_0.chk
 Charge =  0 Multiplicity = 1

 SCF Done:  E(RB3LYP) =  -366.237175745     A.U. after    1 cycles

  1  C    Isotropic =   171.0482   Anisotropy =    25.9209

  2  C    Isotropic =    76.2444   Anisotropy =   145.9354

  3  C    Isotropic =    67.0035   Anisotropy =   138.6029

  4  C    Isotropic =    78.9084   Anisotropy =   146.1228

  5  C    Isotropic =    67.0036   Anisotropy =   138.6030

  6  C    Isotropic =    76.2466   Anisotropy =   145.9311

  7  C    Isotropic =    53.7799   Anisotropy =   149.6607

  8  N    Isotropic =   198.6067   Anisotropy =    18.6342

  9  C    Isotropic =   171.0489   Anisotropy =    25.9217

 10  H    Isotropic =    30.2611   Anisotropy =     7.8077

 11  H    Isotropic =    30.3504   Anisotropy =     7.8575

 12  H    Isotropic =    30.1132   Anisotropy =     7.9110

 13  H    Isotropic =    25.4017   Anisotropy =     6.1702

 14  H    Isotropic =    25.7358   Anisotropy =     3.7841

 15  H    Isotropic =    25.4018   Anisotropy =     6.1704

 16  H    Isotropic =    29.7186   Anisotropy =    11.2429

 17  H    Isotropic =    29.7188   Anisotropy =    11.2430

 18  H    Isotropic =    30.2611   Anisotropy =     7.8077

 19  H    Isotropic =    30.1133   Anisotropy =     7.9100

 20  H    Isotropic =    30.3501   Anisotropy =     7.8584

  Exact polarizability: 110.354   0.000 109.121  -0.000   0.552  43.568
 Approx polarizability: 163.541  -0.000 179.568  -0.000  -0.555  64.819

                     1                      2                      3
                     A                      A                      A
 Frequencies --   131.7760               174.3042               196.1542
 Red. masses --     2.5727                 1.0316                 1.1284
 Frc consts  --     0.0263                 0.0185                 0.0256
 IR Inten    --     0.2654                 2.6199                 1.0934

                     4                      5                      6
                     A                      A                      A
 Frequencies --   224.5841               282.6529               298.5879
 Red. masses --     2.5646                 3.2483                 2.5632
 Frc consts  --     0.0762                 0.1529                 0.1346
 IR Inten    --     3.1194                 9.0237                 0.0999

                     7                      8                      9
                     A                      A                      A
 Frequencies --   308.0946               363.7010               480.7049
 Red. masses --     1.7332                 1.4559                 2.8565
 Frc consts  --     0.0969                 0.1135                 0.3889
 IR Inten    --    10.1150                13.5134                 0.0004

                    10                     11                     12
                     A                      A                      A
 Frequencies --   495.2663               508.3190               551.9051
 Red. masses --     5.3904                 3.3254                 2.8951
 Frc consts  --     0.7790                 0.5063                 0.5196
 IR Inten    --     2.8957                 0.0527                29.4107

                    13                     14                     15
                     A                      A                      A
 Frequencies --   552.0621               641.7519               685.3714
 Red. masses --     4.7745                 1.5656                 3.9649
 Frc consts  --     0.8573                 0.3799                 1.0973
 IR Inten    --     2.4065               238.4922                 8.0214

                    16                     17                     18
                     A                      A                      A
 Frequencies --   749.0463               775.2038               848.4300
 Red. masses --     4.2746                 1.2636                 3.9823
 Frc consts  --     1.4131                 0.4474                 1.6890
 IR Inten    --    37.4690                24.6801                 2.4873

                    19                     20                     21
                     A                      A                      A
 Frequencies --   903.5891               909.9790               945.5382
 Red. masses --     1.3047                 2.6092                 1.2464
 Frc consts  --     0.6276                 1.2730                 0.6565
 IR Inten    --     0.0181                 1.3164                 0.9233

                    22                     23                     24
                     A                      A                      A
 Frequencies --  1016.2236              1037.8203              1070.2236
 Red. masses --     1.6039                 1.4408                 1.4824
 Frc consts  --     0.9759                 0.9143                 1.0004
 IR Inten    --     3.4833                 6.1025                 2.9683

                    25                     26                     27
                     A                      A                      A
 Frequencies --  1074.6586              1130.1636              1177.7092
 Red. masses --     1.4722                 1.6804                 1.4190
 Frc consts  --     1.0017                 1.2645                 1.1596
 IR Inten    --     0.1096                14.0984                 2.7652

                    28                     29                     30
                     A                      A                      A
 Frequencies --  1197.7663              1256.8338              1314.0719
 Red. masses --     1.3860                 5.3542                 1.5373
 Frc consts  --     1.1716                 4.9831                 1.5641
 IR Inten    --     0.6873                 3.3469                 0.8130

                    31                     32                     33
                     A                      A                      A
 Frequencies --  1316.3249              1371.2354              1442.2238
 Red. masses --     2.7678                 4.4912                 1.3260
 Frc consts  --     2.8256                 4.9755                 1.6250
 IR Inten    --    26.3403                 6.4209                 0.9732

                    34                     35                     36
                     A                      A                      A
 Frequencies --  1442.2597              1492.6479              1514.5436
 Red. masses --     1.2497                 2.0646                 1.4362
 Frc consts  --     1.5316                 2.7102                 1.9410
 IR Inten    --     0.0553                40.0433                 0.5258

                    37                     38                     39
                     A                      A                      A
 Frequencies --  1515.0551              1516.6721              1540.1658
 Red. masses --     1.0446                 1.1196                 1.3080
 Frc consts  --     1.4127                 1.5174                 1.8281
 IR Inten    --    13.2340                 0.4671                34.4365

                    40                     41                     42
                     A                      A                      A
 Frequencies --  1542.6987              1652.5589              1658.6149
 Red. masses --     1.4469                 6.5509                 4.0583
 Frc consts  --     2.0289                10.5405                 6.5779
 IR Inten    --    13.6616                 0.1162                 4.3314

                    43                     44                     45
                     A                      A                      A
 Frequencies --  1701.9989              3011.7773              3012.7957
 Red. masses --     1.2167                 1.0474                 1.0475
 Frc consts  --     2.0765                 5.5976                 5.6023
 IR Inten    --    85.8190                42.2994                43.7795

                    46                     47                     48
                     A                      A                      A
 Frequencies --  3063.4264              3063.6125              3126.5221
 Red. masses --     1.0928                 1.0927                 1.0969
 Frc consts  --     6.0423                 6.0425                 6.3176
 IR Inten    --     5.1927                48.0874                18.0302

                    49                     50                     51
                     A                      A                      A
 Frequencies --  3126.7439              3172.1343              3177.3876
 Red. masses --     1.0968                 1.0859                 1.0903
 Frc consts  --     6.3175                 6.4381                 6.4857
 IR Inten    --    12.6896                 1.7713                34.5457

                    52                     53                     54
                     A                      A                      A
 Frequencies --  3204.5666              3556.3231              3652.4062
 Red. masses --     1.0957                 1.0478                 1.0975
 Frc consts  --     6.6294                 7.8077                 8.6259
 IR Inten    --    28.4732                 5.9738                 9.3057

 - Thermochemistry -
 -------------------
 Temperature   298.150 Kelvin.  Pressure   1.00000 Atm.
 Atom     1 has atomic number  6 and mass  12.00000

 Molecular mass:   121.08915 amu.
 Principal axes and moments of inertia in atomic units:
                           1         2         3
     Eigenvalues --   798.639521035.168301809.55950
           X            1.00000   0.00000  -0.00000
           Y           -0.00000   0.99998   0.00620
           Z            0.00000  -0.00620   0.99998
 This molecule is an asymmetric top.
 Rotational symmetry number  1.
 Warning -- assumption of classical behavior for rotation
           may cause significant error
 Rotational temperatures (Kelvin)      0.10845     0.08367     0.04786
 Rotational constants (GHZ):           2.25977     1.74343     0.99734
 Zero-point vibrational energy     455640.8 (Joules/Mol)
                                  108.90076 (Kcal/Mol)
 Warning -- explicit consideration of  13 degrees of freedom as
           vibrations may cause significant error
 Vibrational temperatures:    189.60   250.78   282.22   323.13   406.67
          (Kelvin)            429.60   443.28   523.28   691.63   712.58
                              731.36   794.07   794.29   923.34   986.10
                             1077.71  1115.34  1220.70  1300.06  1309.26
                             1360.42  1462.12  1493.19  1539.81  1546.19
                             1626.05  1694.46  1723.32  1808.30  1890.65
                             1893.90  1972.90  2075.04  2075.09  2147.58
                             2179.09  2179.82  2182.15  2215.95  2219.60
                             2377.66  2386.37  2448.79  4333.27  4334.74
                             4407.58  4407.85  4498.36  4498.68  4563.99
                             4571.55  4610.65  5116.75  5254.99

 Zero-point correction=                           0.173544 (Hartree/Particle)
 Thermal correction to Energy=                    0.182349
 Thermal correction to Enthalpy=                  0.183293
 Thermal correction to Gibbs Free Energy=         0.140810
 Sum of electronic and zero-point Energies=           -366.063631
 Sum of electronic and thermal Energies=              -366.054827
 Sum of electronic and thermal Enthalpies=            -366.053882
 Sum of electronic and thermal Free Energies=         -366.096365

                     E (Thermal)             CV                S
                      KCal/Mol        Cal/Mol-Kelvin    Cal/Mol-Kelvin
 Total                  114.426             34.561             89.413
 Electronic               0.000              0.000              0.000
 Translational            0.889              2.981             40.288
 Rotational               0.889              2.981             28.794
 Vibrational            112.648             28.600             20.331
 Vibration     1          0.612              1.922              2.920
 Vibration     2          0.627              1.874              2.389
 Vibration     3          0.636              1.845              2.169
 Vibration     4          0.649              1.804              1.922
 Vibration     5          0.682              1.706              1.518
 Vibration     6          0.692              1.676              1.425
 Vibration     7          0.698              1.658              1.373
 Vibration     8          0.737              1.547              1.106
 Vibration     9          0.837              1.293              0.708
 Vibration    10          0.851              1.261              0.670
 Vibration    11          0.863              1.232              0.638
 Vibration    12          0.907              1.136              0.540
 Vibration    13          0.907              1.135              0.540

 Normal termination of Gaussian 09 at Mon Oct  4 23:06:16 2021.
 Gaussian 09:  AM64L-G09RevA.02 11-Jun-2009

 ----------------------------------------------------------------------
 #p TD(NStates=10, Root=1) b3lyp/6-31G* volume pop=NPA density=current
 Geom=AllCheck Guess=Read
 ----------------------------------------------------------------------

 Cc1cccc(c1N)C_conf_0
 --------------------
 Redundant internal coordinates taken from checkpoint file:
 C8H11N_ada2_conf_0.chk
 Charge =  0 Multiplicity = 1

                         Standard orientation:
 ---------------------------------------------------------------------
 Center     Atomic      Atomic             Coordinates (Angstroms)
 Number     Number       Type             X           Y           Z
 ---------------------------------------------------------------------
      1          6           0        2.533281   -0.718021    0.020875
      2          6           0        1.225522    0.036012   -0.000015
      3          6           0        1.201512    1.432622   -0.006953
      4          6           0        0.000021    2.139271   -0.013629
      5          6           0       -1.201469    1.432651   -0.006944
      6          6           0       -1.225511    0.036028   -0.000004
      7          6           0       -0.000012   -0.666441   -0.002106
      8          7           0       -0.000024   -2.068379    0.060439
      9          6           0       -2.533294   -0.717967    0.020862
     10          1           0        3.381861   -0.028730    0.059982
     11          1           0        2.668599   -1.343634   -0.874982
     12          1           0        2.604213   -1.385349    0.890559
     13          1           0        2.147062    1.970843   -0.006427
     14          1           0        0.000041    3.225442   -0.018250
     15          1           0       -2.147017    1.970872   -0.006392
     16          1           0       -0.833434   -2.509083   -0.307700
     17          1           0        0.833287   -2.509115   -0.307871
     18          1           0       -3.381846   -0.028655    0.060210
     19          1           0       -2.604179   -1.385484    0.890408
     20          1           0       -2.668721   -1.343376   -0.875125
 ---------------------------------------------------------------------

 SCF Done:  E(RB3LYP) =  -366.237175745     A.U. after    1 cycles

 Excitation energies and oscillator strengths:

 Excited State   1:      Singlet-A      4.9488 eV  250.54 nm  f=0.0412  <S**2>=0.000
      32 -> 35        -0.30567
      33 -> 34         0.63724
 This state for optimization and/or second-order correction.
 Total Energy, E(TD-HF/TD-KS) =  -366.055311851
 Copying the excited state density for this state as the 1-particle RhoCI density.

 Excited State   2:      Singlet-A      5.6804 eV  218.27 nm  f=0.0667  <S**2>=0.000
      32 -> 34         0.30523
      33 -> 35         0.63438

 Excited State   3:      Singlet-A      6.2809 eV  197.40 nm  f=0.0121  <S**2>=0.000
      33 -> 36         0.69933

 Excited State   4:      Singlet-A      6.5780 eV  188.48 nm  f=0.3593  <S**2>=0.000
      31 -> 34         0.22254
      32 -> 35         0.60255
      33 -> 34         0.28905

 Excited State   5:      Singlet-A      6.7820 eV  182.81 nm  f=0.5329  <S**2>=0.000
      32 -> 34         0.62219
      33 -> 35        -0.30247

 Excited State   6:      Singlet-A      7.1963 eV  172.29 nm  f=0.0081  <S**2>=0.000
      32 -> 36         0.19986
      33 -> 37         0.67321

 Excited State   7:      Singlet-A      7.2716 eV  170.50 nm  f=0.0000  <S**2>=0.000
      33 -> 38         0.70380

 Excited State   8:      Singlet-A      7.3698 eV  168.23 nm  f=0.0001  <S**2>=0.000
      32 -> 36         0.67597
      33 -> 37        -0.19887

 Excited State   9:      Singlet-A      7.9319 eV  156.31 nm  f=0.2102  <S**2>=0.000
      29 -> 34        -0.24174
      31 -> 34         0.61624
      32 -> 35        -0.18125

 Excited State  10:      Singlet-A      8.0290 eV  154.42 nm  f=0.0016  <S**2>=0.000
      30 -> 34         0.70287

 The electronic state is 1-A.
 Alpha  occ. eigenvalues --  -14.33599 -10.21425 -10.18163 -10.18163 -10.18067
 Alpha  occ. eigenvalues --  -10.18067 -10.17305 -10.17302 -10.16681  -0.91325
 Alpha  occ. eigenvalues --   -0.82692  -0.77334  -0.73418  -0.68057  -0.67019
 Alpha  occ. eigenvalues --   -0.57932  -0.57363  -0.50674  -0.50379  -0.44971
 Alpha  occ. eigenvalues --   -0.43124  -0.42352  -0.40976  -0.40930  -0.39995
 Alpha  occ. eigenvalues --   -0.39153  -0.36845  -0.34728  -0.33369  -0.32598
 Alpha  occ. eigenvalues --   -0.29917  -0.22619  -0.19256
 Alpha virt. eigenvalues --    0.01722   0.02595   0.07434   0.10715   0.10975
 Alpha virt. eigenvalues --    0.14797   0.15011   0.15595   0.15902   0.16455
 Alpha virt. eigenvalues --    0.19312   0.20079   0.20314   0.21771   0.24042

 Mulliken atomic charges:
              1
     1  C   -0.557598
     2  C    0.172448
     3  C   -0.236304
     4  C   -0.097827
     5  C   -0.236299
     6  C    0.172453
     7  C    0.143700
     8  N   -0.728534
     9  C   -0.557612
    10  H    0.162094
    11  H    0.136853
    12  H    0.154641
    13  H    0.103406
    14  H    0.124103
    15  H    0.103406
    16  H    0.343737
    17  H    0.343737
    18  H    0.162097
    19  H    0.154634
    20  H    0.136865
 Sum of Mulliken atomic charges =  -0.00000

 Dipole moment (field-independent basis, Debye):
    X=             -0.0002    Y=             -2.7047    Z=             -0.9447  Tot=              2.8649
 Quadrupole moment (field-independent basis, Debye-Ang):
   XX=            -51.8909   YY=            -46.6116   ZZ=            -58.0474
   XY=              0.0004   XZ=             -0.0002   YZ=              2.8096

 Summary of Natural Population Analysis:

                                       Natural Population
                Natural  -----------------------------------------------
    Atom  No    Charge         Core      Valence    Rydberg      Total
 -----------------------------------------------------------------------
      C    1   -0.69876      1.99941     4.69128    0.00807     6.69876
      C    2   -0.09355      1.99900     4.07753    0.01702     6.09355
      C    3   -0.29835      1.99907     4.28108    0.01820     6.29835
      C    4   -0.15935      1.99911     4.14422    0.01602     6.15935
      C    5   -0.29835      1.99907     4.28108    0.01820     6.29835
      C    6   -0.09354      1.99900     4.07752    0.01702     6.09354
      C    7    0.16918      1.99886     3.81421    0.01775     5.83082
      N    8   -0.70521      1.99948     5.69473    0.01100     7.70521
      C    9   -0.69877      1.99941     4.69129    0.00807     6.69877
      H   10    0.24680      0.00000     0.75240    0.00079     0.75320
      H   11    0.21800      0.00000     0.77984    0.00216     0.78200
      H   12    0.23158      0.00000     0.76631    0.00212     0.76842
      H   13    0.22142      0.00000     0.77757    0.00101     0.77858
      H   14    0.22822      0.00000     0.77090    0.00089     0.77178
      H   15    0.22142      0.00000     0.77757    0.00101     0.77858
      H   16    0.40643      0.00000     0.59220    0.00137     0.59357
      H   17    0.40643      0.00000     0.59221    0.00137     0.59357
      H   18    0.24681      0.00000     0.75240    0.00080     0.75319
      H   19    0.23157      0.00000     0.76631    0.00212     0.76843
      H   20    0.21801      0.00000     0.77983    0.00216     0.78199
 =======================================================================
   * Total *   -0.00000     17.99241    47.86047    0.14712    66.00000

 Normal termination of Gaussian 09 at Tue Oct  5 00:06:45 2021.
