 Gaussian 09, Revision A.02,

 -----------------------------------
 #p opt b3lyp/6-31G* scf=(xqc,tight)
 -----------------------------------

 --------------------
 CCCCP(=O)CCCC_conf_0
 --------------------
 Symbolic Z-matrix:
 Charge =  0 Multiplicity = 1

 SCF Done:  E(RB3LYP) =  -732.778727497     A.U. after   18 cycles
 SCF Done:  E(RB3LYP) =  -732.838750154     A.U. after   14 cycles
 SCF Done:  E(RB3LYP) =  -732.332718799     A.U. after   18 cycles
 SCF Done:  E(RB3LYP) =  -732.868184484     A.U. after   15 cycles
 SCF Done:  E(RB3LYP) =  -732.884102112     A.U. after   15 cycles
 SCF Done:  E(RB3LYP) =  -732.885474389     A.U. after   13 cycles
 SCF Done:  E(RB3LYP) =  -732.890465887     A.U. after   15 cycles
 SCF Done:  E(RB3LYP) =  -732.892205090     A.U. after   11 cycles
 SCF Done:  E(RB3LYP) =  -732.894299920     A.U. after   11 cycles
 SCF Done:  E(RB3LYP) =  -732.895925541     A.U. after   13 cycles
 SCF Done:  E(RB3LYP) =  -732.900706254     A.U. after   11 cycles
 SCF Done:  E(RB3LYP) =  -732.900711434     A.U. after   10 cycles
 SCF Done:  E(RB3LYP) =  -732.900714179     A.U. after    9 cycles
 SCF Done:  E(RB3LYP) =  -732.900715870     A.U. after    9 cycles
 SCF Done:  E(RB3LYP) =  -732.900717626     A.U. after    8 cycles
 SCF Done:  E(RB3LYP) =  -732.900718552     A.U. after    8 cycles
 SCF Done:  E(RB3LYP) =  -732.900718762     A.U. after    7 cycles
 SCF Done:  E(RB3LYP) =  -732.900718724     A.U. after    7 cycles
 Optimization completed.
    -- Stationary point found.
 Normal termination of Gaussian 09 at Tue Oct  5 17:07:22 2021.

 ----------------------------------------------------------------------
 #p freq b3lyp/6-31G* volume NMR pop=NPA density=current Geom=AllCheck
 Guess=Read
 ----------------------------------------------------------------------

 CCCCP(=O)CCCC_conf_0
 --------------------
 Redundant internal coordinates taken from checkpoint file:
 C8H19OP_ada3_conf_0.chk
 Charge =  0 Multiplicity = 1

 SCF Done:  E(RB3LYP) =  -732.900718724     A.U. after    1 cycles

  1  C    Isotropic =   176.4408   Anisotropy =    19.3435

  2  C    Isotropic =   165.1444   Anisotropy =    15.2645

  3  C    Isotropic =   165.0861   Anisotropy =    18.8978

  4  C    Isotropic =   158.9872   Anisotropy =    31.7789

  5  P    Isotropic =   357.1365   Anisotropy =   256.8241

  6  O    Isotropic =   254.9377   Anisotropy =   103.9839

  7  C    Isotropic =   158.6013   Anisotropy =    15.9162

  8  C    Isotropic =   163.8592   Anisotropy =    27.0238

  9  C    Isotropic =   165.6561   Anisotropy =    16.3105

 10  C    Isotropic =   173.7066   Anisotropy =    24.7594

 11  H    Isotropic =    31.1323   Anisotropy =    10.1677

 12  H    Isotropic =    30.9799   Anisotropy =     6.6762

 13  H    Isotropic =    31.5145   Anisotropy =     8.3409

 14  H    Isotropic =    30.8538   Anisotropy =     7.1050

 15  H    Isotropic =    30.5287   Anisotropy =     8.7052

 16  H    Isotropic =    30.9553   Anisotropy =     7.6394

 17  H    Isotropic =    31.0155   Anisotropy =     5.5906

 18  H    Isotropic =    30.2395   Anisotropy =     5.6126

 19  H    Isotropic =    31.0579   Anisotropy =     4.9708

 20  H    Isotropic =    25.1549   Anisotropy =     5.5623

 21  H    Isotropic =    30.8452   Anisotropy =     6.9853

 22  H    Isotropic =    31.0076   Anisotropy =     5.5665

 23  H    Isotropic =    29.9340   Anisotropy =     5.0348

 24  H    Isotropic =    30.7558   Anisotropy =     7.5183

 25  H    Isotropic =    30.9896   Anisotropy =     6.1730

 26  H    Isotropic =    30.3048   Anisotropy =     5.7368

 27  H    Isotropic =    31.3090   Anisotropy =     8.2717

 28  H    Isotropic =    31.0451   Anisotropy =    10.0284

 29  H    Isotropic =    31.1360   Anisotropy =     8.1557

  Exact polarizability: 132.991  -0.677  97.847  -0.370  -0.169  93.728
 Approx polarizability: 146.727  -4.184 150.822  -1.124   1.472 140.182

                     1                      2                      3
                     A                      A                      A
 Frequencies --    25.1913                30.9159                59.8147
 Red. masses --     3.3496                 2.3751                 2.6843
 Frc consts  --     0.0013                 0.0013                 0.0057
 IR Inten    --     0.2100                 0.4246                 1.3721

                     4                      5                      6
                     A                      A                      A
 Frequencies --    77.4117               100.1341               124.7125
 Red. masses --     1.9622                 3.4925                 2.0377
 Frc consts  --     0.0069                 0.0206                 0.0187
 IR Inten    --     1.6792                 1.1087                 0.0672

                     7                      8                      9
                     A                      A                      A
 Frequencies --   140.1403               182.7389               207.6580
 Red. masses --     2.7996                 2.5688                 1.9568
 Frc consts  --     0.0324                 0.0505                 0.0497
 IR Inten    --     3.4525                 5.5002                 1.7654

                    10                     11                     12
                     A                      A                      A
 Frequencies --   251.0333               259.7073               277.2683
 Red. masses --     1.1055                 2.0053                 1.5471
 Frc consts  --     0.0410                 0.0797                 0.0701
 IR Inten    --     0.3269                 1.4605                 0.3065

                    13                     14                     15
                     A                      A                      A
 Frequencies --   298.3918               350.3844               368.8041
 Red. masses --     3.6288                 3.1501                 3.0761
 Frc consts  --     0.1904                 0.2279                 0.2465
 IR Inten    --     2.6562                15.3928                 7.6570

                    16                     17                     18
                     A                      A                      A
 Frequencies --   429.1546               497.7388               645.0245
 Red. masses --     2.3835                 2.8571                 2.6320
 Frc consts  --     0.2586                 0.4170                 0.6452
 IR Inten    --     7.4908                 3.1026                 8.2396

                    19                     20                     21
                     A                      A                      A
 Frequencies --   703.8936               749.2346               762.0978
 Red. masses --     1.2026                 1.6488                 1.2789
 Frc consts  --     0.3511                 0.5453                 0.4376
 IR Inten    --     1.6679                34.3940                12.0748

                    22                     23                     24
                     A                      A                      A
 Frequencies --   785.3041               799.9001               865.7739
 Red. masses --     1.8244                 1.5896                 1.8092
 Frc consts  --     0.6629                 0.5993                 0.7990
 IR Inten    --    15.7109                 9.8380                14.7006

                    25                     26                     27
                     A                      A                      A
 Frequencies --   883.7630               895.2526               923.6271
 Red. masses --     1.9896                 1.2395                 1.5330
 Frc consts  --     0.9156                 0.5853                 0.7705
 IR Inten    --    13.4857                 5.1589                16.2902

                    28                     29                     30
                     A                      A                      A
 Frequencies --   981.7048               986.3814              1009.1771
 Red. masses --     1.6373                 1.4444                 2.0415
 Frc consts  --     0.9297                 0.8280                 1.2250
 IR Inten    --    39.4461                24.3434                 6.0479

                    31                     32                     33
                     A                      A                      A
 Frequencies --  1024.8205              1066.5744              1076.4400
 Red. masses --     1.2964                 1.9142                 2.3626
 Frc consts  --     0.8022                 1.2830                 1.6129
 IR Inten    --    13.9401                 0.4592                 8.7591

                    34                     35                     36
                     A                      A                      A
 Frequencies --  1092.5814              1099.9341              1117.5750
 Red. masses --     1.4934                 1.3434                 1.7460
 Frc consts  --     1.0503                 0.9576                 1.2848
 IR Inten    --     2.8834                34.1692                 6.1972

                    37                     38                     39
                     A                      A                      A
 Frequencies --  1124.7739              1205.9590              1226.5437
 Red. masses --     1.7065                 2.9385                 1.6742
 Frc consts  --     1.2720                 2.5179                 1.4840
 IR Inten    --     8.3540                64.2696                33.7613

                    40                     41                     42
                     A                      A                      A
 Frequencies --  1234.7008              1269.0949              1277.4510
 Red. masses --     1.4661                 1.4360                 1.5994
 Frc consts  --     1.3169                 1.3626                 1.5377
 IR Inten    --    10.1878                12.7080                58.5453

                    43                     44                     45
                     A                      A                      A
 Frequencies --  1320.5096              1328.5495              1341.4485
 Red. masses --     1.2150                 1.2762                 1.1457
 Frc consts  --     1.2483                 1.3272                 1.2147
 IR Inten    --     5.8614                 4.3433                 0.8520

                    46                     47                     48
                     A                      A                      A
 Frequencies --  1349.7006              1359.6038              1397.0939
 Red. masses --     1.2916                 1.1319                 1.4186
 Frc consts  --     1.3863                 1.2327                 1.6314
 IR Inten    --     6.6623                 0.5206                 3.0434

                    49                     50                     51
                     A                      A                      A
 Frequencies --  1403.6642              1422.4151              1443.2672
 Red. masses --     1.3281                 1.5132                 1.2386
 Frc consts  --     1.5417                 1.8039                 1.5201
 IR Inten    --    10.3825                 2.9747                 0.9195

                    52                     53                     54
                     A                      A                      A
 Frequencies --  1445.4113              1478.5551              1491.9575
 Red. masses --     1.2600                 1.0861                 1.0835
 Frc consts  --     1.5510                 1.3990                 1.4210
 IR Inten    --     6.6720                 5.2298                 3.4617

                    55                     56                     57
                     A                      A                      A
 Frequencies --  1516.0618              1517.0903              1521.1461
 Red. masses --     1.0687                 1.0684                 1.0816
 Frc consts  --     1.4472                 1.4488                 1.4746
 IR Inten    --     0.9318                 1.2715                 3.6723

                    58                     59                     60
                     A                      A                      A
 Frequencies --  1523.3533              1530.5699              1533.3040
 Red. masses --     1.0710                 1.0422                 1.0571
 Frc consts  --     1.4643                 1.4385                 1.4643
 IR Inten    --     1.4177                 5.9672                 4.7663

                    61                     62                     63
                     A                      A                      A
 Frequencies --  1538.6413              1539.4923              2377.2710
 Red. masses --     1.0567                 1.0752                 1.0391
 Frc consts  --     1.4740                 1.5014                 3.4599
 IR Inten    --     6.8909                 4.1119               139.3294

                    64                     65                     66
                     A                      A                      A
 Frequencies --  3024.9306              3028.4772              3032.1746
 Red. masses --     1.0625                 1.0623                 1.0630
 Frc consts  --     5.7279                 5.7404                 5.7585
 IR Inten    --    15.0863                16.7398                29.8152

                    67                     68                     69
                     A                      A                      A
 Frequencies --  3034.0839              3041.5039              3045.0130
 Red. masses --     1.0664                 1.0568                 1.0410
 Frc consts  --     5.7840                 5.7602                 5.6872
 IR Inten    --    31.6790                14.8839                30.5439

                    70                     71                     72
                     A                      A                      A
 Frequencies --  3046.8589              3050.3923              3062.1405
 Red. masses --     1.0393                 1.0598                 1.0927
 Frc consts  --     5.6846                 5.8103                 6.0365
 IR Inten    --    19.1236                12.2799                18.1964

                    73                     74                     75
                     A                      A                      A
 Frequencies --  3066.3197              3069.9830              3083.0319
 Red. masses --     1.0970                 1.1018                 1.1025
 Frc consts  --     6.0773                 6.1183                 6.1743
 IR Inten    --    25.5657                30.1448                 6.4298

                    76                     77                     78
                     A                      A                      A
 Frequencies --  3093.5851              3101.5257              3110.6733
 Red. masses --     1.1009                 1.1019                 1.1024
 Frc consts  --     6.2076                 6.2449                 6.2851
 IR Inten    --    20.0572                23.1793                57.2561

                    79                     80                     81
                     A                      A                      A
 Frequencies --  3112.4613              3116.3605              3119.5691
 Red. masses --     1.1016                 1.1023                 1.1018
 Frc consts  --     6.2874                 6.3076                 6.3175
 IR Inten    --    41.7291                38.7542                46.2120

 - Thermochemistry -
 -------------------
 Temperature   298.150 Kelvin.  Pressure   1.00000 Atm.
 Atom     1 has atomic number  6 and mass  12.00000

 Molecular mass:   162.11735 amu.
 Principal axes and moments of inertia in atomic units:
                           1         2         3
     Eigenvalues --   755.889004599.245874960.95425
           X            0.99999   0.00494  -0.00002
           Y           -0.00494   0.99998   0.00249
           Z            0.00003  -0.00249   1.00000
 This molecule is an asymmetric top.
 Rotational symmetry number  1.
 Warning -- assumption of classical behavior for rotation
           may cause significant error
 Rotational temperatures (Kelvin)      0.11459     0.01883     0.01746
 Rotational constants (GHZ):           2.38757     0.39240     0.36379
 Zero-point vibrational energy     688492.6 (Joules/Mol)
                                  164.55368 (Kcal/Mol)
 Warning -- explicit consideration of  17 degrees of freedom as
           vibrations may cause significant error
 Vibrational temperatures:     36.24    44.48    86.06   111.38   144.07
          (Kelvin)            179.43   201.63   262.92   298.77   361.18
                              373.66   398.93   429.32   504.12   530.63
                              617.46   716.13   928.05  1012.74  1077.98
                             1096.49  1129.88  1150.88  1245.65  1271.54
                             1288.07  1328.89  1412.45  1419.18  1451.98
                             1474.49  1534.56  1548.76  1571.98  1582.56
                             1607.94  1618.30  1735.10  1764.72  1776.46
                             1825.94  1837.96  1899.92  1911.48  1930.04
                             1941.92  1956.16  2010.10  2019.56  2046.54
                             2076.54  2079.62  2127.31  2146.59  2181.27
                             2182.75  2188.59  2191.76  2202.15  2206.08
                             2213.76  2214.98  3420.36  4352.19  4357.30
                             4362.62  4365.36  4376.04  4381.09  4383.74
                             4388.83  4405.73  4411.74  4417.02  4435.79
                             4450.97  4462.40  4475.56  4478.13  4483.74
                             4488.36

 Zero-point correction=                           0.262233 (Hartree/Particle)
 Thermal correction to Energy=                    0.275997
 Thermal correction to Enthalpy=                  0.276941
 Thermal correction to Gibbs Free Energy=         0.219952
 Sum of electronic and zero-point Energies=           -732.638486
 Sum of electronic and thermal Energies=              -732.624722
 Sum of electronic and thermal Enthalpies=            -732.623778
 Sum of electronic and thermal Free Energies=         -732.680767

                     E (Thermal)             CV                S
                      KCal/Mol        Cal/Mol-Kelvin    Cal/Mol-Kelvin
 Total                  173.191             48.561            119.943
 Electronic               0.000              0.000              0.000
 Translational            0.889              2.981             41.158
 Rotational               0.889              2.981             31.223
 Vibrational            171.413             42.600             47.562
 Vibration     1          0.593              1.985              6.176
 Vibration     2          0.594              1.984              5.770
 Vibration     3          0.597              1.973              4.463
 Vibration     4          0.599              1.964              3.955
 Vibration     5          0.604              1.949              3.452
 Vibration     6          0.610              1.928              3.026
 Vibration     7          0.615              1.913              2.802
 Vibration     8          0.630              1.863              2.300
 Vibration     9          0.641              1.829              2.064
 Vibration    10          0.663              1.761              1.723
 Vibration    11          0.668              1.746              1.664
 Vibration    12          0.678              1.716              1.550
 Vibration    13          0.691              1.677              1.426
 Vibration    14          0.727              1.574              1.164
 Vibration    15          0.741              1.536              1.085
 Vibration    16          0.791              1.407              0.861
 Vibration    17          0.853              1.255              0.664

 Optimization completed.
    -- Stationary point found.
 Normal termination of Gaussian 09 at Tue Oct  5 17:13:17 2021.
 Gaussian 09:  AM64L-G09RevA.02 11-Jun-2009

 ----------------------------------------------------------------------
 #p TD(NStates=10, Root=1) b3lyp/6-31G* volume pop=NPA density=current
 Geom=AllCheck Guess=Read
 ----------------------------------------------------------------------

 CCCCP(=O)CCCC_conf_0
 --------------------
 Redundant internal coordinates taken from checkpoint file:
 C8H19OP_ada3_conf_0.chk
 Charge =  0 Multiplicity = 1

                         Standard orientation:
 ---------------------------------------------------------------------
 Center     Atomic      Atomic             Coordinates (Angstroms)
 Number     Number       Type             X           Y           Z
 ---------------------------------------------------------------------
      1          6           0        4.644070   -0.124345   -0.612141
      2          6           0        3.728155   -0.998183    0.251817
      3          6           0        2.226616   -0.850388   -0.055900
      4          6           0        1.657732    0.538837    0.278940
      5         15           0       -0.120504    0.789936   -0.116521
      6          8           0       -0.608386    2.203792    0.017090
      7          6           0       -1.041899   -0.437458    0.898836
      8          6           0       -2.572123   -0.300651    0.795937
      9          6           0       -3.159353   -0.710346   -0.561678
     10          6           0       -4.688992   -0.629906   -0.587768
     11          1           0        5.697810   -0.322522   -0.386784
     12          1           0        4.470865    0.944559   -0.445392
     13          1           0        4.488925   -0.324698   -1.679671
     14          1           0        3.901277   -0.776799    1.314214
     15          1           0        4.003787   -2.051842    0.111282
     16          1           0        1.679290   -1.615960    0.509009
     17          1           0        2.056629   -1.070899   -1.119550
     18          1           0        2.187950    1.325609   -0.271160
     19          1           0        1.786967    0.767262    1.345563
     20          1           0       -0.199371    0.251870   -1.433849
     21          1           0       -0.724112   -0.272953    1.937060
     22          1           0       -0.718649   -1.449636    0.619489
     23          1           0       -2.847164    0.738220    1.015636
     24          1           0       -3.026247   -0.919480    1.582174
     25          1           0       -2.841244   -1.735375   -0.802334
     26          1           0       -2.752971   -0.067588   -1.353771
     27          1           0       -5.133734   -1.288884    0.168237
     28          1           0       -5.087165   -0.926310   -1.564611
     29          1           0       -5.033427    0.390684   -0.382707
 ---------------------------------------------------------------------

 SCF Done:  E(RB3LYP) =  -732.900718724     A.U. after    1 cycles

 Excitation energies and oscillator strengths:

 Excited State   1:      Singlet-A      7.0969 eV  174.70 nm  f=0.0211  <S**2>=0.000
      45 -> 46         0.68034
      45 -> 47        -0.12942
      45 -> 48         0.10395
 This state for optimization and/or second-order correction.
 Total Energy, E(TD-HF/TD-KS) =  -732.639912217
 Copying the excited state density for this state as the 1-particle RhoCI density.

 Excited State   2:      Singlet-A      7.1983 eV  172.24 nm  f=0.0098  <S**2>=0.000
      44 -> 46         0.68085
      44 -> 47        -0.13839

 Excited State   3:      Singlet-A      7.8263 eV  158.42 nm  f=0.0119  <S**2>=0.000
      44 -> 47        -0.25497
      44 -> 48         0.15076
      45 -> 46         0.11250
      45 -> 47         0.57161
      45 -> 49        -0.16820

 Excited State   4:      Singlet-A      7.9778 eV  155.41 nm  f=0.0329  <S**2>=0.000
      44 -> 46         0.13476
      44 -> 47         0.49907
      44 -> 48        -0.27594
      45 -> 47         0.31600
      45 -> 48         0.15149

 Excited State   5:      Singlet-A      8.1988 eV  151.22 nm  f=0.0193  <S**2>=0.000
      44 -> 47         0.11457
      44 -> 48         0.37455
      44 -> 49        -0.16994
      44 -> 50         0.10547
      44 -> 51        -0.10338
      45 -> 48         0.36260
      45 -> 49        -0.34133
      45 -> 50         0.10128

 Excited State   6:      Singlet-A      8.3159 eV  149.09 nm  f=0.0003  <S**2>=0.000
      44 -> 48         0.26433
      45 -> 47         0.16789
      45 -> 48         0.23774
      45 -> 49         0.56392

 Excited State   7:      Singlet-A      8.3913 eV  147.75 nm  f=0.0169  <S**2>=0.000
      44 -> 47        -0.35145
      44 -> 48        -0.36198
      44 -> 49        -0.14633
      45 -> 48         0.44236

 Excited State   8:      Singlet-A      8.6962 eV  142.57 nm  f=0.0483  <S**2>=0.000
      44 -> 49         0.57385
      44 -> 50        -0.11280
      45 -> 48         0.19772
      45 -> 50        -0.18784
      45 -> 51         0.16784
      45 -> 52         0.10116

 Excited State   9:      Singlet-A      8.8173 eV  140.61 nm  f=0.0383  <S**2>=0.000
      44 -> 48         0.14425
      44 -> 49        -0.24562
      44 -> 50        -0.26177
      44 -> 51         0.36129
      44 -> 52         0.12395
      44 -> 53        -0.15541
      45 -> 50        -0.28380
      45 -> 51         0.25208

 Excited State  10:      Singlet-A      8.8970 eV  139.36 nm  f=0.0043  <S**2>=0.000
      45 -> 50         0.44095
      45 -> 51         0.37010
      45 -> 52         0.36246
      45 -> 53        -0.13982

 The electronic state is 1-A.
 Alpha  occ. eigenvalues --  -77.14677 -19.08334 -10.20078 -10.19684 -10.19665
 Alpha  occ. eigenvalues --  -10.19271 -10.18853 -10.18391 -10.18137 -10.17405
 Alpha  occ. eigenvalues --   -6.60700  -4.76961  -4.76890  -4.76852  -0.94131
 Alpha  occ. eigenvalues --   -0.81063  -0.79986  -0.74781  -0.72910  -0.66655
 Alpha  occ. eigenvalues --   -0.64172  -0.59209  -0.58366  -0.55016  -0.47870
 Alpha  occ. eigenvalues --   -0.47206  -0.46197  -0.44066  -0.43164  -0.42836
 Alpha  occ. eigenvalues --   -0.41254  -0.40267  -0.39075  -0.37714  -0.37162
 Alpha  occ. eigenvalues --   -0.36511  -0.35192  -0.34188  -0.33963  -0.33532
 Alpha  occ. eigenvalues --   -0.33323  -0.32726  -0.32478  -0.25657  -0.25210
 Alpha virt. eigenvalues --    0.05593   0.07125   0.08737   0.09362   0.10478
 Alpha virt. eigenvalues --    0.10627   0.11019   0.12514   0.12800   0.13556
 Alpha virt. eigenvalues --    0.15147   0.15227   0.15705   0.16471   0.17253

 Mulliken atomic charges:
              1
     1  C   -0.442710
     2  C   -0.263365
     3  C   -0.231772
     4  C   -0.438383
     5  P    0.289242
     6  O   -0.192421
     7  C   -0.424793
     8  C   -0.230789
     9  C   -0.237687
    10  C   -0.440542
    11  H    0.146632
    12  H    0.144709
    13  H    0.145050
    14  H    0.133625
    15  H    0.142826
    16  H    0.141657
    17  H    0.135344
    18  H    0.187238
    19  H    0.177674
    20  H    0.001786
    21  H    0.168247
    22  H    0.181240
    23  H    0.137890
    24  H    0.114901
    25  H    0.115592
    26  H    0.119062
    27  H    0.137278
    28  H    0.139467
    29  H    0.143000
 Sum of Mulliken atomic charges =  -0.00000

 Dipole moment (field-independent basis, Debye):
    X=              2.1067    Y=             -2.1778    Z=              0.8573  Tot=              3.1490
 Quadrupole moment (field-independent basis, Debye-Ang):
   XX=            -72.5985   YY=            -79.2669   ZZ=            -72.4123
   XY=              2.0835   XZ=             -0.5040   YZ=             -0.0717

 Summary of Natural Population Analysis:

                                       Natural Population
                Natural  -----------------------------------------------
    Atom  No    Charge         Core      Valence    Rydberg      Total
 -----------------------------------------------------------------------
      C    1   -0.67937      1.99946     4.67219    0.00772     6.67937
      C    2   -0.45827      1.99933     4.44695    0.01198     6.45827
      C    3   -0.47638      1.99931     4.45587    0.02120     6.47638
      C    4   -0.77528      1.99931     4.74946    0.02651     6.77528
      P    5    1.24820      9.99838     3.56017    0.19325    13.75180
      O    6   -0.67778      1.99992     6.64134    0.03652     8.67778
      C    7   -0.75156      1.99932     4.73313    0.01911     6.75156
      C    8   -0.46567      1.99932     4.45176    0.01460     6.46567
      C    9   -0.46292      1.99935     4.45224    0.01133     6.46292
      C   10   -0.67283      1.99946     4.66533    0.00804     6.67283
      H   11    0.23446      0.00000     0.76443    0.00111     0.76554
      H   12    0.22282      0.00000     0.77528    0.00191     0.77718
      H   13    0.22600      0.00000     0.77279    0.00121     0.77400
      H   14    0.22722      0.00000     0.77084    0.00194     0.77278
      H   15    0.24082      0.00000     0.75790    0.00129     0.75918
      H   16    0.23627      0.00000     0.76227    0.00146     0.76373
      H   17    0.23180      0.00000     0.76315    0.00505     0.76820
      H   18    0.26189      0.00000     0.73651    0.00160     0.73811
      H   19    0.26206      0.00000     0.73615    0.00179     0.73794
      H   20   -0.03475      0.00000     1.03289    0.00186     1.03475
      H   21    0.25993      0.00000     0.73566    0.00442     0.74007
      H   22    0.25393      0.00000     0.74170    0.00437     0.74607
      H   23    0.22901      0.00000     0.76393    0.00706     0.77099
      H   24    0.22083      0.00000     0.77123    0.00794     0.77917
      H   25    0.21673      0.00000     0.77879    0.00448     0.78327
      H   26    0.20613      0.00000     0.77964    0.01423     0.79387
      H   27    0.22195      0.00000     0.77628    0.00176     0.77805
      H   28    0.22991      0.00000     0.76873    0.00136     0.77009
      H   29    0.22484      0.00000     0.77287    0.00229     0.77516
 =======================================================================
   * Total *    0.00000     27.99316    61.58946    0.41738    90.00000

 Normal termination of Gaussian 09 at Tue Oct  5 17:23:07 2021.
