 Gaussian 09, Revision A.02,

 -----------------------------------
 #p opt b3lyp/6-31G* scf=(xqc,tight)
 -----------------------------------

 -------------------
 COCOc1ccccc1_conf_0
 -------------------
 Symbolic Z-matrix:
 Charge =  0 Multiplicity = 1

 SCF Done:  E(RB3LYP) =  -461.290114181     A.U. after   14 cycles
 SCF Done:  E(RB3LYP) =  -461.292716443     A.U. after   12 cycles
 SCF Done:  E(RB3LYP) =  -461.293041154     A.U. after   11 cycles
 SCF Done:  E(RB3LYP) =  -461.293077010     A.U. after   10 cycles
 SCF Done:  E(RB3LYP) =  -461.293089890     A.U. after   10 cycles
 SCF Done:  E(RB3LYP) =  -461.293097704     A.U. after   10 cycles
 SCF Done:  E(RB3LYP) =  -461.293104628     A.U. after   10 cycles
 SCF Done:  E(RB3LYP) =  -461.293107882     A.U. after   10 cycles
 SCF Done:  E(RB3LYP) =  -461.293108535     A.U. after    8 cycles
 SCF Done:  E(RB3LYP) =  -461.293108642     A.U. after    7 cycles
 SCF Done:  E(RB3LYP) =  -461.293108686     A.U. after    6 cycles
 SCF Done:  E(RB3LYP) =  -461.293108702     A.U. after    6 cycles
 Optimization completed.
    -- Stationary point found.
 Normal termination of Gaussian 09 at Wed Sep 29 11:43:26 2021.

 ----------------------------------------------------------------------
 #p freq b3lyp/6-31G* volume NMR pop=NPA density=current Geom=AllCheck
 Guess=Read
 ----------------------------------------------------------------------

 COCOc1ccccc1_conf_0
 -------------------
 Redundant internal coordinates taken from checkpoint file:
 C8H10O2_574a_conf_0.chk
 Charge =  0 Multiplicity = 1

 SCF Done:  E(RB3LYP) =  -461.293108702     A.U. after    1 cycles

  1  C    Isotropic =   134.8572   Anisotropy =    74.8140

  2  O    Isotropic =   284.3789   Anisotropy =    41.2412

  3  C    Isotropic =    97.4804   Anisotropy =    36.5818

  4  O    Isotropic =   201.5404   Anisotropy =    56.5038

  5  C    Isotropic =    41.7536   Anisotropy =   127.2267

  6  C    Isotropic =    85.8816   Anisotropy =   139.2459

  7  C    Isotropic =    67.3433   Anisotropy =   164.3630

  8  C    Isotropic =    76.2409   Anisotropy =   156.9387

  9  C    Isotropic =    67.0457   Anisotropy =   165.4464

 10  C    Isotropic =    78.7191   Anisotropy =   137.1186

 11  H    Isotropic =    28.6070   Anisotropy =     8.2219

 12  H    Isotropic =    29.2664   Anisotropy =     7.3876

 13  H    Isotropic =    28.2123   Anisotropy =     7.6282

 14  H    Isotropic =    27.3532   Anisotropy =     4.0761

 15  H    Isotropic =    26.8469   Anisotropy =     4.6052

 16  H    Isotropic =    26.0402   Anisotropy =     7.5693

 17  H    Isotropic =    25.1130   Anisotropy =     4.7842

 18  H    Isotropic =    25.4269   Anisotropy =     3.8336

 19  H    Isotropic =    25.0308   Anisotropy =     4.4800

 20  H    Isotropic =    25.4938   Anisotropy =     6.2934

  Exact polarizability: 123.024  -0.101  91.508  -4.159  -3.280  46.015
 Approx polarizability: 171.566   0.761 151.154 -12.010  -7.763  68.322

                     1                      2                      3
                     A                      A                      A
 Frequencies --    39.9235                68.3831               139.2667
 Red. masses --     4.5558                 2.8243                 1.6625
 Frc consts  --     0.0043                 0.0078                 0.0190
 IR Inten    --     0.9673                 1.3709                 0.1348

                     4                      5                      6
                     A                      A                      A
 Frequencies --   145.3442               204.7488               245.8273
 Red. masses --     1.8877                 2.8635                 4.9231
 Frc consts  --     0.0235                 0.0707                 0.1753
 IR Inten    --     3.2470                 5.2260                 1.4046

                     7                      8                      9
                     A                      A                      A
 Frequencies --   341.8496               422.7351               430.2834
 Red. masses --     3.6777                 3.1613                 3.4630
 Frc consts  --     0.2532                 0.3329                 0.3778
 IR Inten    --     4.0680                 0.2786                 3.8991

                    10                     11                     12
                     A                      A                      A
 Frequencies --   483.3880               519.7537               627.7361
 Red. masses --     3.7896                 2.9037                 6.6468
 Frc consts  --     0.5217                 0.4622                 1.5432
 IR Inten    --     5.4069                 4.6187                 0.2673

                    13                     14                     15
                     A                      A                      A
 Frequencies --   634.6389               702.0832               765.3847
 Red. masses --     6.4898                 2.3740                 1.5875
 Frc consts  --     1.5401                 0.6894                 0.5479
 IR Inten    --     2.5328                10.2595                54.1323

                    16                     17                     18
                     A                      A                      A
 Frequencies --   829.9659               854.1808               891.5633
 Red. masses --     1.2491                 6.2847                 1.4445
 Frc consts  --     0.5070                 2.7017                 0.6765
 IR Inten    --     0.0524                 6.7855                 5.9516

                    19                     20                     21
                     A                      A                      A
 Frequencies --   955.9307               976.2221               982.6553
 Red. masses --     1.3247                 4.1593                 1.2324
 Frc consts  --     0.7132                 2.3354                 0.7011
 IR Inten    --     0.0132                31.0708                 0.0327

                    22                     23                     24
                     A                      A                      A
 Frequencies --  1012.4242              1030.5866              1058.3430
 Red. masses --     5.9317                 7.3864                 2.1175
 Frc consts  --     3.5822                 4.6222                 1.3974
 IR Inten    --    18.6498               207.6944                43.1067

                    25                     26                     27
                     A                      A                      A
 Frequencies --  1115.9370              1139.1925              1183.2985
 Red. masses --     1.5255                 1.5515                 1.3295
 Frc consts  --     1.1193                 1.1863                 1.0968
 IR Inten    --    10.2990                38.9815                27.2849

                    28                     29                     30
                     A                      A                      A
 Frequencies --  1189.5351              1209.4777              1211.6382
 Red. masses --     1.1017                 1.1999                 2.1067
 Frc consts  --     0.9185                 1.0342                 1.8222
 IR Inten    --     4.0640                 7.4774               187.4764

                    31                     32                     33
                     A                      A                      A
 Frequencies --  1241.0762              1292.2988              1324.8848
 Red. masses --     1.9406                 4.2020                 1.1694
 Frc consts  --     1.7611                 4.1346                 1.2094
 IR Inten    --   199.5886               157.1605                 4.0403

                    34                     35                     36
                     A                      A                      A
 Frequencies --  1348.4235              1373.0757              1454.6664
 Red. masses --     2.5164                 2.0620                 1.1826
 Frc consts  --     2.6958                 2.2905                 1.4745
 IR Inten    --    24.7436                 5.7503                64.7879

                    37                     38                     39
                     A                      A                      A
 Frequencies --  1501.1164              1505.6868              1514.1486
 Red. masses --     1.2549                 2.0275                 1.0585
 Frc consts  --     1.6661                 2.7082                 1.4298
 IR Inten    --    18.6483                 8.4715                 4.9740

                    40                     41                     42
                     A                      A                      A
 Frequencies --  1537.3284              1547.1832              1556.9341
 Red. masses --     1.0563                 1.6774                 1.3468
 Frc consts  --     1.4709                 2.3658                 1.9235
 IR Inten    --     5.3396                54.2902                16.5939

                    43                     44                     45
                     A                      A                      A
 Frequencies --  1644.1681              1666.4545              2966.4655
 Red. masses --     5.7870                 5.5767                 1.0665
 Frc consts  --     9.2171                 9.1246                 5.5293
 IR Inten    --    18.9395                62.7368                51.4983

                    46                     47                     48
                     A                      A                      A
 Frequencies --  3017.6144              3079.5797              3099.9523
 Red. masses --     1.0449                 1.0972                 1.0921
 Frc consts  --     5.6060                 6.1306                 6.1833
 IR Inten    --    54.1550                45.1056                34.9327

                    49                     50                     51
                     A                      A                      A
 Frequencies --  3156.4291              3183.7412              3191.2884
 Red. masses --     1.1028                 1.0851                 1.0893
 Frc consts  --     6.4737                 6.4803                 6.5365
 IR Inten    --    32.1251                 2.3647                14.9857

                    52                     53                     54
                     A                      A                      A
 Frequencies --  3207.8049              3216.1963              3223.1264
 Red. masses --     1.0929                 1.0951                 1.0929
 Frc consts  --     6.6259                 6.6738                 6.6893
 IR Inten    --    31.5716                12.6574                 8.2162

 - Thermochemistry -
 -------------------
 Temperature   298.150 Kelvin.  Pressure   1.00000 Atm.
 Atom     1 has atomic number  6 and mass  12.00000

 Molecular mass:   138.06808 amu.
 Principal axes and moments of inertia in atomic units:
                           1         2         3
     Eigenvalues --   448.949912736.627583058.54648
           X            0.99994   0.00475   0.00952
           Y           -0.00479   0.99998   0.00387
           Z           -0.00950  -0.00391   0.99995
 This molecule is an asymmetric top.
 Rotational symmetry number  1.
 Warning -- assumption of classical behavior for rotation
           may cause significant error
 Rotational temperatures (Kelvin)      0.19293     0.03165     0.02832
 Rotational constants (GHZ):           4.01992     0.65948     0.59006
 Zero-point vibrational energy     438203.7 (Joules/Mol)
                                  104.73320 (Kcal/Mol)
 Warning -- explicit consideration of  11 degrees of freedom as
           vibrations may cause significant error
 Vibrational temperatures:     57.44    98.39   200.37   209.12   294.59
          (Kelvin)            353.69   491.84   608.22   619.08   695.49
                              747.81   903.17   913.10  1010.14  1101.22
                             1194.13  1228.97  1282.76  1375.37  1404.56
                             1413.82  1456.65  1482.78  1522.72  1605.58
                             1639.04  1702.50  1711.47  1740.17  1743.27
                             1785.63  1859.33  1906.21  1940.08  1975.55
                             2092.94  2159.77  2166.34  2178.52  2211.87
                             2226.05  2240.08  2365.59  2397.65  4268.08
                             4341.67  4430.82  4460.13  4541.39  4580.69
                             4591.55  4615.31  4627.38  4637.35

 Zero-point correction=                           0.166903 (Hartree/Particle)
 Thermal correction to Energy=                    0.176236
 Thermal correction to Enthalpy=                  0.177180
 Thermal correction to Gibbs Free Energy=         0.131379
 Sum of electronic and zero-point Energies=           -461.126206
 Sum of electronic and thermal Energies=              -461.116873
 Sum of electronic and thermal Enthalpies=            -461.115929
 Sum of electronic and thermal Free Energies=         -461.161730

                     E (Thermal)             CV                S
                      KCal/Mol        Cal/Mol-Kelvin    Cal/Mol-Kelvin
 Total                  110.590             34.282             96.397
 Electronic               0.000              0.000              0.000
 Translational            0.889              2.981             40.680
 Rotational               0.889              2.981             29.709
 Vibrational            108.812             28.321             26.008
 Vibration     1          0.594              1.981              5.263
 Vibration     2          0.598              1.969              4.199
 Vibration     3          0.615              1.914              2.814
 Vibration     4          0.617              1.908              2.732
 Vibration     5          0.640              1.833              2.090
 Vibration     6          0.660              1.770              1.760
 Vibration     7          0.721              1.592              1.204
 Vibration     8          0.785              1.421              0.883
 Vibration     9          0.791              1.404              0.858
 Vibration    10          0.840              1.287              0.701
 Vibration    11          0.875              1.206              0.611

 Optimization completed.
    -- Stationary point found.
 Normal termination of Gaussian 09 at Wed Sep 29 12:14:26 2021.
 Gaussian 09:  AM64L-G09RevA.02 11-Jun-2009

 ----------------------------------------------------------------------
 #p TD(NStates=10, Root=1) b3lyp/6-31G* volume pop=NPA density=current
 Geom=AllCheck Guess=Read
 ----------------------------------------------------------------------

 COCOc1ccccc1_conf_0
 -------------------
 Redundant internal coordinates taken from checkpoint file:
 C8H10O2_574a_conf_0.chk
 Charge =  0 Multiplicity = 1

                         Standard orientation:
 ---------------------------------------------------------------------
 Center     Atomic      Atomic             Coordinates (Angstroms)
 Number     Number       Type             X           Y           Z
 ---------------------------------------------------------------------
      1          6           0        3.527101    0.551682    0.657418
      2          8           0        3.074101   -0.285569   -0.401341
      3          6           0        1.780873   -0.741233   -0.244123
      4          8           0        0.882228    0.359110   -0.367532
      5          6           0       -0.452424    0.142399   -0.165852
      6          6           0       -1.029232   -1.118531    0.034123
      7          6           0       -2.411633   -1.219982    0.222537
      8          6           0       -3.221450   -0.087129    0.210924
      9          6           0       -2.636897    1.167702    0.006370
     10          6           0       -1.264365    1.286187   -0.180070
     11          1           0        4.583117    0.751134    0.463768
     12          1           0        3.426285    0.046525    1.630138
     13          1           0        2.974213    1.496836    0.685897
     14          1           0        1.630221   -1.216736    0.741475
     15          1           0        1.602816   -1.468960   -1.044824
     16          1           0       -0.424081   -2.018314    0.038928
     17          1           0       -2.850980   -2.202145    0.377049
     18          1           0       -4.293867   -0.176590    0.357307
     19          1           0       -3.255363    2.061403   -0.007034
     20          1           0       -0.794832    2.251946   -0.339681
 ---------------------------------------------------------------------

 SCF Done:  E(RB3LYP) =  -461.293108702     A.U. after    1 cycles

 Excitation energies and oscillator strengths:

 Excited State   1:      Singlet-A      5.1995 eV  238.45 nm  f=0.0257  <S**2>=0.000
      36 -> 39         0.31933
      37 -> 38         0.62162
 This state for optimization and/or second-order correction.
 Total Energy, E(TD-HF/TD-KS) =  -461.102029931
 Copying the excited state density for this state as the 1-particle RhoCI density.

 Excited State   2:      Singlet-A      5.9829 eV  207.23 nm  f=0.0990  <S**2>=0.000
      36 -> 38        -0.34146
      37 -> 38        -0.11004
      37 -> 39         0.60441

 Excited State   3:      Singlet-A      6.9418 eV  178.61 nm  f=0.1450  <S**2>=0.000
      34 -> 38        -0.13004
      35 -> 38         0.54306
      36 -> 38        -0.17895
      36 -> 39         0.31448
      37 -> 38        -0.16484
      37 -> 39        -0.13884

 Excited State   4:      Singlet-A      7.0040 eV  177.02 nm  f=0.2419  <S**2>=0.000
      34 -> 38        -0.24893
      35 -> 38        -0.30582
      36 -> 38         0.22568
      36 -> 39         0.47249
      37 -> 38        -0.22680

 Excited State   5:      Singlet-A      7.0346 eV  176.25 nm  f=0.5183  <S**2>=0.000
      34 -> 39         0.12081
      35 -> 38         0.31883
      36 -> 38         0.52380
      37 -> 39         0.29448

 Excited State   6:      Singlet-A      7.2753 eV  170.42 nm  f=0.0082  <S**2>=0.000
      35 -> 39         0.68916

 Excited State   7:      Singlet-A      7.3391 eV  168.94 nm  f=0.0001  <S**2>=0.000
      37 -> 40         0.70048

 Excited State   8:      Singlet-A      7.7667 eV  159.63 nm  f=0.0085  <S**2>=0.000
      37 -> 41         0.69724

 Excited State   9:      Singlet-A      7.7858 eV  159.24 nm  f=0.0442  <S**2>=0.000
      33 -> 38         0.58473
      34 -> 38         0.32804
      36 -> 39         0.12940

 Excited State  10:      Singlet-A      7.9925 eV  155.13 nm  f=0.1421  <S**2>=0.000
      33 -> 38        -0.35988
      34 -> 38         0.54250
      36 -> 39         0.20681
      37 -> 38        -0.10789

 The electronic state is 1-A.
 Alpha  occ. eigenvalues --  -19.17555 -19.16378 -10.29035 -10.24823 -10.23174
 Alpha  occ. eigenvalues --  -10.19060 -10.18931 -10.18829 -10.18342 -10.18208
 Alpha  occ. eigenvalues --   -1.08553  -1.02944  -0.84614  -0.75409  -0.74326
 Alpha  occ. eigenvalues --   -0.71750  -0.65215  -0.60481  -0.58976  -0.54316
 Alpha  occ. eigenvalues --   -0.50977  -0.50131  -0.49056  -0.45630  -0.43967
 Alpha  occ. eigenvalues --   -0.43298  -0.42044  -0.41663  -0.37885  -0.37074
 Alpha  occ. eigenvalues --   -0.36008  -0.33728  -0.33240  -0.31214  -0.27928
 Alpha  occ. eigenvalues --   -0.24921  -0.21901
 Alpha virt. eigenvalues --    0.00068   0.01434   0.08919   0.09613   0.12557
 Alpha virt. eigenvalues --    0.12791   0.14373   0.15061   0.15688   0.16287
 Alpha virt. eigenvalues --    0.16912   0.17670   0.18953   0.19003   0.21265

 Mulliken atomic charges:
              1
     1  C   -0.217072
     2  O   -0.446813
     3  C    0.180180
     4  O   -0.460785
     5  C    0.349403
     6  C   -0.197880
     7  C   -0.167789
     8  C   -0.106916
     9  C   -0.162046
    10  C   -0.187920
    11  H    0.170008
    12  H    0.138804
    13  H    0.167561
    14  H    0.142407
    15  H    0.171487
    16  H    0.125001
    17  H    0.121391
    18  H    0.133420
    19  H    0.120692
    20  H    0.126866
 Sum of Mulliken atomic charges =  -0.00000

 Dipole moment (field-independent basis, Debye):
    X=              1.3533    Y=             -0.6592    Z=              1.2012  Tot=              1.9259
 Quadrupole moment (field-independent basis, Debye-Ang):
   XX=            -54.8108   YY=            -55.5351   ZZ=            -61.5721
   XY=              1.0686   XZ=              3.5754   YZ=              0.3737

 Summary of Natural Population Analysis:

                                       Natural Population
                Natural  -----------------------------------------------
    Atom  No    Charge         Core      Valence    Rydberg      Total
 -----------------------------------------------------------------------
      C    1   -0.32157      1.99944     4.30785    0.01428     6.32157
      O    2   -0.55959      1.99980     6.54724    0.01255     8.55959
      C    3    0.20670      1.99938     3.76665    0.02726     5.79330
      O    4   -0.45193      1.99973     6.44024    0.01195     8.45193
      C    5    0.32107      1.99881     3.65684    0.02329     5.67893
      C    6   -0.33364      1.99906     4.31751    0.01708     6.33364
      C    7   -0.28786      1.99915     4.26877    0.01995     6.28786
      C    8   -0.16169      1.99912     4.14668    0.01589     6.16169
      C    9   -0.29067      1.99915     4.27243    0.01909     6.29067
      C   10   -0.30963      1.99907     4.29021    0.02035     6.30963
      H   11    0.22582      0.00000     0.77360    0.00058     0.77418
      H   12    0.19361      0.00000     0.80465    0.00174     0.80639
      H   13    0.21158      0.00000     0.78663    0.00179     0.78842
      H   14    0.18838      0.00000     0.80825    0.00336     0.81162
      H   15    0.22119      0.00000     0.77684    0.00197     0.77881
      H   16    0.22468      0.00000     0.77432    0.00101     0.77532
      H   17    0.22870      0.00000     0.77043    0.00087     0.77130
      H   18    0.23003      0.00000     0.76912    0.00085     0.76997
      H   19    0.22918      0.00000     0.76999    0.00083     0.77082
      H   20    0.23563      0.00000     0.76311    0.00126     0.76437
 =======================================================================
   * Total *   -0.00000     19.99270    53.81136    0.19594    74.00000

 Normal termination of Gaussian 09 at Wed Sep 29 14:39:55 2021.
