 Gaussian 09, Revision A.02,

 -----------------------------------
 #p opt b3lyp/6-31G* scf=(xqc,tight)
 -----------------------------------

 ---------------------
 OCc1ccc(cc1)OC_conf_0
 ---------------------
 Symbolic Z-matrix:
 Charge =  0 Multiplicity = 1

 SCF Done:  E(RB3LYP) =  -461.288269707     A.U. after   14 cycles
 SCF Done:  E(RB3LYP) =  -461.289893999     A.U. after   12 cycles
 SCF Done:  E(RB3LYP) =  -461.290016906     A.U. after   11 cycles
 SCF Done:  E(RB3LYP) =  -461.290045710     A.U. after   10 cycles
 SCF Done:  E(RB3LYP) =  -461.290065846     A.U. after   10 cycles
 SCF Done:  E(RB3LYP) =  -461.290075877     A.U. after   10 cycles
 SCF Done:  E(RB3LYP) =  -461.290078937     A.U. after    9 cycles
 SCF Done:  E(RB3LYP) =  -461.290079596     A.U. after    8 cycles
 SCF Done:  E(RB3LYP) =  -461.290080485     A.U. after    8 cycles
 SCF Done:  E(RB3LYP) =  -461.290081645     A.U. after   10 cycles
 SCF Done:  E(RB3LYP) =  -461.290082354     A.U. after    8 cycles
 SCF Done:  E(RB3LYP) =  -461.290082464     A.U. after    7 cycles
 Optimization completed.
    -- Stationary point found.
 Normal termination of Gaussian 09 at Tue Sep 28 14:20:31 2021.

 ----------------------------------------------------------------------
 #p freq b3lyp/6-31G* volume NMR pop=NPA density=current Geom=AllCheck
 Guess=Read
 ----------------------------------------------------------------------

 OCc1ccc(cc1)OC_conf_0
 ---------------------
 Redundant internal coordinates taken from checkpoint file:
 C8H10O2_8f9c_conf_0.chk
 Charge =  0 Multiplicity = 1

 SCF Done:  E(RB3LYP) =  -461.290082464     A.U. after    1 cycles

  1  O    Isotropic =   299.1486   Anisotropy =   118.5563

  2  C    Isotropic =   124.8782   Anisotropy =    51.2994

  3  C    Isotropic =    64.4267   Anisotropy =   160.0338

  4  C    Isotropic =    68.3250   Anisotropy =   171.5525

  5  C    Isotropic =    86.3242   Anisotropy =   143.6947

  6  C    Isotropic =    39.8441   Anisotropy =   125.8413

  7  C    Isotropic =    79.3826   Anisotropy =   133.4919

  8  C    Isotropic =    69.5768   Anisotropy =   149.7487

  9  O    Isotropic =   239.2433   Anisotropy =    75.7046

 10  C    Isotropic =   137.5658   Anisotropy =    64.6810

 11  H    Isotropic =    31.9952   Anisotropy =    18.6130

 12  H    Isotropic =    27.5614   Anisotropy =     6.8111

 13  H    Isotropic =    27.2614   Anisotropy =     4.9359

 14  H    Isotropic =    24.5461   Anisotropy =     8.6946

 15  H    Isotropic =    25.7470   Anisotropy =     7.3678

 16  H    Isotropic =    25.5872   Anisotropy =     5.6915

 17  H    Isotropic =    25.3619   Anisotropy =     6.0553

 18  H    Isotropic =    28.3280   Anisotropy =     7.9703

 19  H    Isotropic =    28.6452   Anisotropy =     7.9981

 20  H    Isotropic =    28.6418   Anisotropy =     7.9428

  Exact polarizability: 130.131   3.713  91.493   3.333  -2.340  44.867
 Approx polarizability: 180.839   0.529 153.706   5.239  -4.818  65.827

                     1                      2                      3
                     A                      A                      A
 Frequencies --    37.0549                81.2445               137.4653
 Red. masses --     3.6960                 2.9822                 4.1401
 Frc consts  --     0.0030                 0.0116                 0.0461
 IR Inten    --     4.6803                 7.6070                 2.4832

                     4                      5                      6
                     A                      A                      A
 Frequencies --   186.1926               241.4235               267.0579
 Red. masses --     3.1574                 1.2442                 1.1604
 Frc consts  --     0.0645                 0.0427                 0.0488
 IR Inten    --     5.4430                26.7923                90.9569

                     7                      8                      9
                     A                      A                      A
 Frequencies --   281.8548               345.7691               366.3715
 Red. masses --     2.8134                 2.9967                 5.7403
 Frc consts  --     0.1317                 0.2111                 0.4540
 IR Inten    --     0.9277                 2.8706                 0.2807

                    10                     11                     12
                     A                      A                      A
 Frequencies --   425.9635               495.9256               523.7954
 Red. masses --     3.1715                 3.7837                 3.2435
 Frc consts  --     0.3390                 0.5483                 0.5243
 IR Inten    --     0.4648                 5.6608                 8.2374

                    13                     14                     15
                     A                      A                      A
 Frequencies --   558.1664               650.5496               711.5814
 Red. masses --     3.7539                 6.9622                 3.5098
 Frc consts  --     0.6891                 1.7360                 1.0471
 IR Inten    --    18.9767                 0.5114                 0.8426

                    16                     17                     18
                     A                      A                      A
 Frequencies --   747.7454               829.4603               836.1412
 Red. masses --     4.0260                 1.3218                 1.8328
 Frc consts  --     1.3263                 0.5358                 0.7549
 IR Inten    --     1.6280                14.8129                29.6243

                    19                     20                     21
                     A                      A                      A
 Frequencies --   847.0915               951.1339               957.7182
 Red. masses --     3.2478                 1.2617                 1.3130
 Frc consts  --     1.3731                 0.6725                 0.7096
 IR Inten    --    24.8754                 1.1539                 0.3957

                    22                     23                     24
                     A                      A                      A
 Frequencies --  1031.9090              1041.7577              1071.6847
 Red. masses --     2.7715                 1.6904                 6.7288
 Frc consts  --     1.7388                 1.0809                 4.5532
 IR Inten    --     1.1135                 3.3123                54.6157

                    25                     26                     27
                     A                      A                      A
 Frequencies --  1083.5494              1145.3920              1186.6521
 Red. masses --     5.5160                 1.3258                 1.2705
 Frc consts  --     3.8157                 1.0248                 1.0541
 IR Inten    --    65.1608                 2.6633                 0.7892

                    28                     29                     30
                     A                      A                      A
 Frequencies --  1201.4503              1215.2640              1219.9420
 Red. masses --     1.3087                 1.5307                 1.4018
 Frc consts  --     1.1130                 1.3319                 1.2292
 IR Inten    --    68.3728                24.7812                18.0613

                    31                     32                     33
                     A                      A                      A
 Frequencies --  1260.2765              1265.3607              1297.6496
 Red. masses --     1.4089                 1.1319                 4.4138
 Frc consts  --     1.3184                 1.0678                 4.3791
 IR Inten    --    31.5568                11.6801               246.8919

                    34                     35                     36
                     A                      A                      A
 Frequencies --  1346.5981              1368.2381              1457.4142
 Red. masses --     1.4450                 4.1593                 2.2525
 Frc consts  --     1.5438                 4.5877                 2.8189
 IR Inten    --     4.0517                50.3626                12.9648

                    37                     38                     39
                     A                      A                      A
 Frequencies --  1482.0146              1501.1862              1521.1457
 Red. masses --     1.7374                 1.1973                 1.0479
 Frc consts  --     2.2483                 1.5898                 1.4287
 IR Inten    --    28.4502                13.9729                 5.1092

                    40                     41                     42
                     A                      A                      A
 Frequencies --  1535.8996              1544.8181              1569.7889
 Red. masses --     1.0638                 1.0957                 2.4136
 Frc consts  --     1.4786                 1.5407                 3.5043
 IR Inten    --    36.9336                 4.4748                89.3454

                    43                     44                     45
                     A                      A                      A
 Frequencies --  1637.5420              1677.5114              2968.3544
 Red. masses --     6.6566                 5.7295                 1.0635
 Frc consts  --    10.5169                 9.4994                 5.5210
 IR Inten    --    14.1545                53.1851                75.8831

                    46                     47                     48
                     A                      A                      A
 Frequencies --  3000.1314              3023.7430              3081.5310
 Red. masses --     1.0982                 1.0348                 1.1066
 Frc consts  --     5.8236                 5.5744                 6.1910
 IR Inten    --    62.7602                55.5214                46.2384

                    49                     50                     51
                     A                      A                      A
 Frequencies --  3154.7404              3175.0639              3211.4211
 Red. masses --     1.0996                 1.0887                 1.0875
 Frc consts  --     6.4479                 6.4662                 6.6078
 IR Inten    --    28.7159                18.7975                 7.9253

                    52                     53                     54
                     A                      A                      A
 Frequencies --  3214.1271              3226.7903              3755.0678
 Red. masses --     1.0925                 1.0932                 1.0664
 Frc consts  --     6.6496                 6.7065                 8.8594
 IR Inten    --     7.9954                10.4610                11.1520

 - Thermochemistry -
 -------------------
 Temperature   298.150 Kelvin.  Pressure   1.00000 Atm.
 Atom     1 has atomic number  8 and mass  15.99491

 Molecular mass:   138.06808 amu.
 Principal axes and moments of inertia in atomic units:
                           1         2         3
     Eigenvalues --   468.122052617.561853035.99330
           X            0.99979   0.02032   0.00402
           Y           -0.02029   0.99976  -0.00783
           Z           -0.00418   0.00775   0.99996
 This molecule is an asymmetric top.
 Rotational symmetry number  1.
 Warning -- assumption of classical behavior for rotation
           may cause significant error
 Rotational temperatures (Kelvin)      0.18502     0.03309     0.02853
 Rotational constants (GHZ):           3.85528     0.68947     0.59445
 Zero-point vibrational energy     436360.2 (Joules/Mol)
                                  104.29258 (Kcal/Mol)
 Warning -- explicit consideration of  13 degrees of freedom as
           vibrations may cause significant error
 Vibrational temperatures:     53.31   116.89   197.78   267.89   347.35
          (Kelvin)            384.24   405.53   497.48   527.13   612.87
                              713.53   753.62   803.08   935.99  1023.81
                             1075.84  1193.41  1203.02  1218.77  1368.47
                             1377.94  1484.69  1498.86  1541.91  1558.98
                             1647.96  1707.33  1728.62  1748.49  1755.22
                             1813.25  1820.57  1867.03  1937.45  1968.59
                             2096.89  2132.29  2159.87  2188.59  2209.81
                             2222.65  2258.57  2356.05  2413.56  4270.79
                             4316.51  4350.49  4433.63  4538.96  4568.20
                             4620.51  4624.41  4642.63  5402.70

 Zero-point correction=                           0.166201 (Hartree/Particle)
 Thermal correction to Energy=                    0.175860
 Thermal correction to Enthalpy=                  0.176804
 Thermal correction to Gibbs Free Energy=         0.130694
 Sum of electronic and zero-point Energies=           -461.123882
 Sum of electronic and thermal Energies=              -461.114222
 Sum of electronic and thermal Enthalpies=            -461.113278
 Sum of electronic and thermal Free Energies=         -461.159389

                     E (Thermal)             CV                S
                      KCal/Mol        Cal/Mol-Kelvin    Cal/Mol-Kelvin
 Total                  110.354             35.762             97.048
 Electronic               0.000              0.000              0.000
 Translational            0.889              2.981             40.680
 Rotational               0.889              2.981             29.699
 Vibrational            108.577             29.800             26.669
 Vibration     1          0.594              1.982              5.411
 Vibration     2          0.600              1.962              3.861
 Vibration     3          0.614              1.916              2.839
 Vibration     4          0.632              1.859              2.265
 Vibration     5          0.658              1.777              1.792
 Vibration     6          0.672              1.734              1.615
 Vibration     7          0.681              1.707              1.522
 Vibration     8          0.724              1.584              1.185
 Vibration     9          0.739              1.541              1.095
 Vibration    10          0.788              1.414              0.872
 Vibration    11          0.851              1.259              0.668
 Vibration    12          0.879              1.197              0.601
 Vibration    13          0.914              1.122              0.528

 Normal termination of Gaussian 09 at Tue Sep 28 14:25:17 2021.
 Gaussian 09:  AM64L-G09RevA.02 11-Jun-2009

 ----------------------------------------------------------------------
 #p TD(NStates=10, Root=1) b3lyp/6-31G* volume pop=NPA density=current
 Geom=AllCheck Guess=Read
 ----------------------------------------------------------------------

 OCc1ccc(cc1)OC_conf_0
 ---------------------
 Redundant internal coordinates taken from checkpoint file:
 C8H10O2_8f9c_conf_0.chk
 Charge =  0 Multiplicity = 1

                         Standard orientation:
 ---------------------------------------------------------------------
 Center     Atomic      Atomic             Coordinates (Angstroms)
 Number     Number       Type             X           Y           Z
 ---------------------------------------------------------------------
      1          8           0        3.425675   -0.927345   -0.377414
      2          6           0        2.899648    0.258646    0.213158
      3          6           0        1.393225    0.254323    0.101928
      4          6           0        0.669064   -0.937463    0.158463
      5          6           0       -0.727050   -0.942851    0.099334
      6          6           0       -1.421466    0.267223   -0.010156
      7          6           0       -0.705388    1.471148   -0.068509
      8          6           0        0.682949    1.456831   -0.018584
      9          8           0       -2.782518    0.382302   -0.073552
     10          6           0       -3.556194   -0.804656   -0.029316
     11          1           0        4.363038   -0.981825   -0.138288
     12          1           0        3.300759    1.160109   -0.278189
     13          1           0        3.194742    0.317782    1.275370
     14          1           0        1.206111   -1.877484    0.233734
     15          1           0       -1.256325   -1.888364    0.137924
     16          1           0       -1.258034    2.400598   -0.164830
     17          1           0        1.224743    2.398771   -0.078024
     18          1           0       -4.598487   -0.486223   -0.093751
     19          1           0       -3.402904   -1.353524    0.909653
     20          1           0       -3.327631   -1.468690   -0.873778
 ---------------------------------------------------------------------

 SCF Done:  E(RB3LYP) =  -461.290082464     A.U. after    2 cycles

 Excitation energies and oscillator strengths:

 Excited State   1:      Singlet-A      5.0814 eV  244.00 nm  f=0.0254  <S**2>=0.000
      36 -> 39         0.30394
      37 -> 38         0.62736
 This state for optimization and/or second-order correction.
 Total Energy, E(TD-HF/TD-KS) =  -461.103344598
 Copying the excited state density for this state as the 1-particle RhoCI density.

 Excited State   2:      Singlet-A      5.7608 eV  215.22 nm  f=0.2011  <S**2>=0.000
      36 -> 38        -0.26861
      37 -> 38        -0.10759
      37 -> 39         0.63910

 Excited State   3:      Singlet-A      6.6338 eV  186.90 nm  f=0.0252  <S**2>=0.000
      35 -> 38         0.66102
      35 -> 39        -0.12479
      36 -> 38        -0.14648
      36 -> 39        -0.12166

 Excited State   4:      Singlet-A      6.7493 eV  183.70 nm  f=0.1806  <S**2>=0.000
      34 -> 38         0.11579
      35 -> 39         0.43388
      36 -> 38         0.30286
      36 -> 39        -0.35865
      37 -> 38         0.18144
      37 -> 39         0.11732
      37 -> 40        -0.10346

 Excited State   5:      Singlet-A      6.8722 eV  180.41 nm  f=0.2330  <S**2>=0.000
      34 -> 38        -0.16388
      35 -> 38         0.22525
      35 -> 39         0.14401
      36 -> 38         0.30259
      36 -> 39         0.44039
      37 -> 38        -0.18853
      37 -> 40        -0.25239

 Excited State   6:      Singlet-A      6.9494 eV  178.41 nm  f=0.2531  <S**2>=0.000
      35 -> 39         0.50915
      36 -> 38        -0.33836
      36 -> 39         0.13811
      37 -> 39        -0.16862
      37 -> 40         0.22953

 Excited State   7:      Singlet-A      7.1314 eV  173.86 nm  f=0.2023  <S**2>=0.000
      35 -> 40         0.10380
      36 -> 38         0.29477
      37 -> 39         0.15089
      37 -> 40         0.58435
      37 -> 41        -0.10512

 Excited State   8:      Singlet-A      7.4103 eV  167.31 nm  f=0.0139  <S**2>=0.000
      37 -> 41         0.66818
      37 -> 42        -0.17332

 Excited State   9:      Singlet-A      7.6317 eV  162.46 nm  f=0.0018  <S**2>=0.000
      31 -> 38        -0.13247
      33 -> 38         0.68093
      34 -> 38        -0.12114

 Excited State  10:      Singlet-A      7.7655 eV  159.66 nm  f=0.0084  <S**2>=0.000
      33 -> 39         0.11333
      35 -> 40        -0.11688
      37 -> 41         0.18808
      37 -> 42         0.65155

 The electronic state is 1-A.
 Alpha  occ. eigenvalues --  -19.17223 -19.14369 -10.23984 -10.23733 -10.23379
 Alpha  occ. eigenvalues --  -10.18408 -10.18213 -10.18091 -10.17990 -10.17814
 Alpha  occ. eigenvalues --   -1.05776  -1.01550  -0.84453  -0.76179  -0.74022
 Alpha  occ. eigenvalues --   -0.70609  -0.65329  -0.60447  -0.57016  -0.52684
 Alpha  occ. eigenvalues --   -0.51268  -0.47382  -0.46352  -0.46210  -0.44191
 Alpha  occ. eigenvalues --   -0.43678  -0.41504  -0.40167  -0.37055  -0.36730
 Alpha  occ. eigenvalues --   -0.35339  -0.33012  -0.31865  -0.31036  -0.26831
 Alpha  occ. eigenvalues --   -0.24322  -0.20838
 Alpha virt. eigenvalues --    0.00593   0.01616   0.07684   0.10001   0.11078
 Alpha virt. eigenvalues --    0.13227   0.14271   0.15345   0.15829   0.16515
 Alpha virt. eigenvalues --    0.17073   0.18514   0.18697   0.20846   0.23301

 Mulliken atomic charges:
              1
     1  O   -0.605848
     2  C   -0.110828
     3  C    0.162692
     4  C   -0.201308
     5  C   -0.202153
     6  C    0.355634
     7  C   -0.191039
     8  C   -0.212002
     9  O   -0.450640
    10  C   -0.225437
    11  H    0.392794
    12  H    0.136608
    13  H    0.145434
    14  H    0.136136
    15  H    0.119279
    16  H    0.123784
    17  H    0.109430
    18  H    0.175860
    19  H    0.170142
    20  H    0.171463
 Sum of Mulliken atomic charges =  -0.00000

 Dipole moment (field-independent basis, Debye):
    X=             -0.2979    Y=             -0.7586    Z=              0.9717  Tot=              1.2683
 Quadrupole moment (field-independent basis, Debye-Ang):
   XX=            -38.1717   YY=            -57.4502   ZZ=            -61.9364
   XY=              6.4510   XZ=              3.3432   YZ=             -1.0480

 Summary of Natural Population Analysis:

                                       Natural Population
                Natural  -----------------------------------------------
    Atom  No    Charge         Core      Valence    Rydberg      Total
 -----------------------------------------------------------------------
      O    1   -0.74142      1.99984     6.72882    0.01276     8.74142
      C    2   -0.11134      1.99920     4.09501    0.01714     6.11134
      C    3    0.00621      1.99902     3.97789    0.01688     5.99379
      C    4   -0.27590      1.99907     4.25706    0.01977     6.27590
      C    5   -0.33628      1.99905     4.31995    0.01728     6.33628
      C    6    0.32958      1.99879     3.64850    0.02312     5.67042
      C    7   -0.31406      1.99907     4.29412    0.02087     6.31406
      C    8   -0.28702      1.99907     4.26956    0.01839     6.28702
      O    9   -0.43200      1.99975     6.42056    0.01168     8.43200
      C   10   -0.32466      1.99942     4.31115    0.01410     6.32466
      H   11    0.47227      0.00000     0.52586    0.00187     0.52773
      H   12    0.20822      0.00000     0.78898    0.00280     0.79178
      H   13    0.21592      0.00000     0.78169    0.00239     0.78408
      H   14    0.24153      0.00000     0.75700    0.00146     0.75847
      H   15    0.22590      0.00000     0.77311    0.00099     0.77410
      H   16    0.23569      0.00000     0.76306    0.00126     0.76431
      H   17    0.22393      0.00000     0.77495    0.00112     0.77607
      H   18    0.23046      0.00000     0.76900    0.00054     0.76954
      H   19    0.21613      0.00000     0.78179    0.00208     0.78387
      H   20    0.21683      0.00000     0.78114    0.00203     0.78317
 =======================================================================
   * Total *    0.00000     19.99228    53.81918    0.18854    74.00000

 Normal termination of Gaussian 09 at Tue Sep 28 14:33:40 2021.
