 Gaussian 09, Revision A.02,

 -----------------------------------
 #p opt b3lyp/6-31G* scf=(xqc,tight)
 -----------------------------------

 ------------------
 CNCc1ccccc1_conf_0
 ------------------
 Symbolic Z-matrix:
 Charge =  0 Multiplicity = 1

 SCF Done:  E(RB3LYP) =  -366.213538789     A.U. after   14 cycles
 SCF Done:  E(RB3LYP) =  -366.215353114     A.U. after   12 cycles
 SCF Done:  E(RB3LYP) =  -366.215513903     A.U. after   11 cycles
 SCF Done:  E(RB3LYP) =  -366.215615642     A.U. after   11 cycles
 SCF Done:  E(RB3LYP) =  -366.215663638     A.U. after   11 cycles
 SCF Done:  E(RB3LYP) =  -366.215690005     A.U. after   10 cycles
 SCF Done:  E(RB3LYP) =  -366.215697261     A.U. after   10 cycles
 SCF Done:  E(RB3LYP) =  -366.215697801     A.U. after    9 cycles
 SCF Done:  E(RB3LYP) =  -366.215697917     A.U. after    7 cycles
 Optimization completed.
    -- Stationary point found.
 Normal termination of Gaussian 09 at Mon Oct  4 11:06:54 2021.

 ----------------------------------------------------------------------
 #p freq b3lyp/6-31G* volume NMR pop=NPA density=current Geom=AllCheck
 Guess=Read
 ----------------------------------------------------------------------

 CNCc1ccccc1_conf_0
 ------------------
 Redundant internal coordinates taken from checkpoint file:
 C8H11N_c139_conf_0.chk
 Charge =  0 Multiplicity = 1

 SCF Done:  E(RB3LYP) =  -366.215697917     A.U. after    1 cycles

  1  C    Isotropic =   152.5324   Anisotropy =    52.6630

  2  N    Isotropic =   216.0472   Anisotropy =    45.3168

  3  C    Isotropic =   132.3129   Anisotropy =    40.5531

  4  C    Isotropic =    55.7474   Anisotropy =   176.6514

  5  C    Isotropic =    68.6995   Anisotropy =   148.0466

  6  C    Isotropic =    69.0465   Anisotropy =   163.0672

  7  C    Isotropic =    69.5373   Anisotropy =   164.4721

  8  C    Isotropic =    68.1463   Anisotropy =   165.4462

  9  C    Isotropic =    67.9160   Anisotropy =   169.3607

 10  H    Isotropic =    29.5371   Anisotropy =     9.1827

 11  H    Isotropic =    29.7765   Anisotropy =     8.8698

 12  H    Isotropic =    29.8071   Anisotropy =     8.1127

 13  H    Isotropic =    32.1540   Anisotropy =     9.5515

 14  H    Isotropic =    28.3827   Anisotropy =     3.8218

 15  H    Isotropic =    28.7831   Anisotropy =     7.0980

 16  H    Isotropic =    25.2179   Anisotropy =     6.6941

 17  H    Isotropic =    25.1005   Anisotropy =     4.5371

 18  H    Isotropic =    25.0901   Anisotropy =     4.1582

 19  H    Isotropic =    24.9658   Anisotropy =     4.8201

 20  H    Isotropic =    24.4023   Anisotropy =     9.0169

  Exact polarizability: 120.139  -1.236  91.965  -5.840  -1.625  47.770
 Approx polarizability: 164.158  -1.326 153.808 -11.856  -3.833  71.110

                     1                      2                      3
                     A                      A                      A
 Frequencies --    48.7717                99.6073               128.5256
 Red. masses --     2.6490                 2.1085                 3.5148
 Frc consts  --     0.0037                 0.0123                 0.0342
 IR Inten    --     0.8841                 2.6283                 0.9356

                     4                      5                      6
                     A                      A                      A
 Frequencies --   252.6477               260.0449               327.0778
 Red. masses --     1.4739                 1.9219                 3.3877
 Frc consts  --     0.0554                 0.0766                 0.2135
 IR Inten    --     0.3641                 2.2495                 0.9805

                     7                      8                      9
                     A                      A                      A
 Frequencies --   375.4088               419.2672               491.7129
 Red. masses --     3.3585                 3.0128                 3.1124
 Frc consts  --     0.2789                 0.3120                 0.4434
 IR Inten    --     0.9984                 0.2273                 4.9117

                    10                     11                     12
                     A                      A                      A
 Frequencies --   612.4771               635.4860               713.4739
 Red. masses --     4.6820                 6.3194                 2.3024
 Frc consts  --     1.0348                 1.5036                 0.6906
 IR Inten    --     2.2261                 0.2761                14.5068

                    13                     14                     15
                     A                      A                      A
 Frequencies --   755.7290               806.7155               838.2983
 Red. masses --     1.4766                 1.4482                 2.7402
 Frc consts  --     0.4969                 0.5553                 1.1346
 IR Inten    --    46.7896                65.0995                17.7064

                    16                     17                     18
                     A                      A                      A
 Frequencies --   867.2770               924.3504               973.0260
 Red. masses --     1.2469                 1.3465                 1.3397
 Frc consts  --     0.5526                 0.6778                 0.7473
 IR Inten    --     0.5878                 3.5564                 0.3075

                    19                     20                     21
                     A                      A                      A
 Frequencies --   983.4501               995.1579              1010.0894
 Red. masses --     2.3410                 1.2731                 1.4727
 Frc consts  --     1.3340                 0.7429                 0.8853
 IR Inten    --     5.7951                 3.7768                 7.9492

                    22                     23                     24
                     A                      A                      A
 Frequencies --  1018.9899              1058.4484              1111.8917
 Red. masses --     5.3404                 2.2022                 1.5669
 Frc consts  --     3.2671                 1.4536                 1.1414
 IR Inten    --     1.7293                 5.3571                 4.2989

                    25                     26                     27
                     A                      A                      A
 Frequencies --  1143.0842              1166.5630              1191.6583
 Red. masses --     2.2709                 1.5528                 1.1041
 Frc consts  --     1.7482                 1.2450                 0.9238
 IR Inten    --    16.9655                20.6806                 0.3433

                    28                     29                     30
                     A                      A                      A
 Frequencies --  1195.9103              1210.4515              1232.0182
 Red. masses --     1.7630                 1.1398                 2.6336
 Frc consts  --     1.4856                 0.9839                 2.3553
 IR Inten    --    11.7985                 0.1309                 0.6109

                    31                     32                     33
                     A                      A                      A
 Frequencies --  1287.1483              1348.0305              1364.6723
 Red. masses --     1.3879                 2.3948                 1.8602
 Frc consts  --     1.3547                 2.5640                 2.0411
 IR Inten    --     6.0599                 4.9849                 2.1521

                    34                     35                     36
                     A                      A                      A
 Frequencies --  1408.9324              1482.3812              1500.5013
 Red. masses --     1.4357                 1.2069                 1.7443
 Frc consts  --     1.6792                 1.5625                 2.3139
 IR Inten    --    25.4033                 1.5245                 6.2763

                    37                     38                     39
                     A                      A                      A
 Frequencies --  1505.4274              1518.6935              1537.1319
 Red. masses --     1.3562                 1.0792                 1.1344
 Frc consts  --     1.8108                 1.4665                 1.5792
 IR Inten    --    29.2306                 6.0292                12.1297

                    40                     41                     42
                     A                      A                      A
 Frequencies --  1545.1431              1549.0529              1644.8520
 Red. masses --     1.4443                 1.3248                 5.5433
 Frc consts  --     2.0316                 1.8730                 8.8363
 IR Inten    --     3.0352                 9.1197                 0.5267

                    43                     44                     45
                     A                      A                      A
 Frequencies --  1666.0956              2931.0688              2951.8692
 Red. masses --     5.5625                 1.0736                 1.0615
 Frc consts  --     9.0974                 5.4343                 5.4495
 IR Inten    --     3.2690                59.0809               128.0249

                    46                     47                     48
                     A                      A                      A
 Frequencies --  3021.3162              3071.8842              3120.4372
 Red. masses --     1.0853                 1.0732                 1.1020
 Frc consts  --     5.8371                 5.9668                 6.3220
 IR Inten    --    31.8946                43.0309                33.9428

                    49                     50                     51
                     A                      A                      A
 Frequencies --  3172.0408              3181.2268              3191.7171
 Red. masses --     1.0861                 1.0870                 1.0916
 Frc consts  --     6.4389                 6.4813                 6.5519
 IR Inten    --     8.4898                 1.1523                32.9866

                    52                     53                     54
                     A                      A                      A
 Frequencies --  3204.3615              3214.0282              3488.0709
 Red. masses --     1.0955                 1.0941                 1.0742
 Frc consts  --     6.6277                 6.6592                 7.7004
 IR Inten    --    31.5083                 8.2681                 0.3147

 - Thermochemistry -
 -------------------
 Temperature   298.150 Kelvin.  Pressure   1.00000 Atm.
 Atom     1 has atomic number  6 and mass  12.00000

 Molecular mass:   121.08915 amu.
 Principal axes and moments of inertia in atomic units:
                           1         2         3
     Eigenvalues --   389.873832061.206972373.35757
           X            0.99999  -0.00388  -0.00155
           Y            0.00388   0.99999   0.00006
           Z            0.00155  -0.00006   1.00000
 This molecule is an asymmetric top.
 Rotational symmetry number  1.
 Rotational temperatures (Kelvin)      0.22216     0.04202     0.03649
 Rotational constants (GHZ):           4.62904     0.87557     0.76042
 Zero-point vibrational energy     459089.0 (Joules/Mol)
                                  109.72491 (Kcal/Mol)
 Warning -- explicit consideration of  10 degrees of freedom as
           vibrations may cause significant error
 Vibrational temperatures:     70.17   143.31   184.92   363.50   374.15
          (Kelvin)            470.59   540.13   603.23   707.46   881.22
                              914.32  1026.53  1087.32  1160.68  1206.12
                             1247.82  1329.93  1399.97  1414.96  1431.81
                             1453.29  1466.10  1522.87  1599.76  1644.64
                             1678.42  1714.53  1720.65  1741.57  1772.60
                             1851.92  1939.51  1963.46  2027.14  2132.81
                             2158.88  2165.97  2185.06  2211.59  2223.11
                             2228.74  2366.57  2397.14  4217.15  4247.08
                             4346.99  4419.75  4489.61  4563.85  4577.07
                             4592.16  4610.36  4624.26  5018.55

 Zero-point correction=                           0.174858 (Hartree/Particle)
 Thermal correction to Energy=                    0.183311
 Thermal correction to Enthalpy=                  0.184256
 Thermal correction to Gibbs Free Energy=         0.141032
 Sum of electronic and zero-point Energies=           -366.040840
 Sum of electronic and thermal Energies=              -366.032387
 Sum of electronic and thermal Enthalpies=            -366.031442
 Sum of electronic and thermal Free Energies=         -366.074666

                     E (Thermal)             CV                S
                      KCal/Mol        Cal/Mol-Kelvin    Cal/Mol-Kelvin
 Total                  115.030             31.746             90.971
 Electronic               0.000              0.000              0.000
 Translational            0.889              2.981             40.288
 Rotational               0.889              2.981             29.035
 Vibrational            113.252             25.785             21.647
 Vibration     1          0.595              1.978              4.867
 Vibration     2          0.604              1.949              3.462
 Vibration     3          0.611              1.925              2.968
 Vibration     4          0.664              1.758              1.712
 Vibration     5          0.668              1.746              1.661
 Vibration     6          0.711              1.621              1.274
 Vibration     7          0.746              1.522              1.058
 Vibration     8          0.782              1.428              0.894
 Vibration     9          0.847              1.268              0.679
 Vibration    10          0.972              1.005              0.429

 Optimization completed.
    -- Stationary point found.
 Normal termination of Gaussian 09 at Mon Oct  4 11:41:38 2021.
 Gaussian 09:  AM64L-G09RevA.02 11-Jun-2009

 ----------------------------------------------------------------------
 #p TD(NStates=10, Root=1) b3lyp/6-31G* volume pop=NPA density=current
 Geom=AllCheck Guess=Read
 ----------------------------------------------------------------------

 CNCc1ccccc1_conf_0
 ------------------
 Redundant internal coordinates taken from checkpoint file:
 C8H11N_c139_conf_0.chk
 Charge =  0 Multiplicity = 1

                         Standard orientation:
 ---------------------------------------------------------------------
 Center     Atomic      Atomic             Coordinates (Angstroms)
 Number     Number       Type             X           Y           Z
 ---------------------------------------------------------------------
      1          6           0       -3.646708   -0.103769   -0.132735
      2          7           0       -2.227179   -0.381649   -0.312523
      3          6           0       -1.365036    0.558664    0.400343
      4          6           0        0.104929    0.253301    0.190036
      5          6           0        1.027388    1.286915   -0.008366
      6          6           0        2.386814    1.011964   -0.170949
      7          6           0        2.840477   -0.307207   -0.145443
      8          6           0        1.926543   -1.346776    0.044281
      9          6           0        0.570116   -1.068952    0.211989
     10          1           0       -4.234822   -0.804583   -0.734200
     11          1           0       -3.949448    0.925232   -0.404920
     12          1           0       -3.916136   -0.258442    0.919129
     13          1           0       -1.994755   -0.352353   -1.303921
     14          1           0       -1.611631    0.472103    1.469644
     15          1           0       -1.559678    1.615380    0.131256
     16          1           0        0.677766    2.317027   -0.036988
     17          1           0        3.088479    1.827929   -0.324581
     18          1           0        3.897357   -0.524748   -0.276136
     19          1           0        2.271991   -2.377496    0.062649
     20          1           0       -0.146013   -1.873349    0.350801
 ---------------------------------------------------------------------

 SCF Done:  E(RB3LYP) =  -366.215697917     A.U. after    1 cycles

 Excitation energies and oscillator strengths:

 Excited State   1:      Singlet-A      5.2704 eV  235.25 nm  f=0.0028  <S**2>=0.000
      32 -> 34         0.12293
      33 -> 34         0.68187
      33 -> 35        -0.12443
 This state for optimization and/or second-order correction.
 Total Energy, E(TD-HF/TD-KS) =  -366.022015488
 Copying the excited state density for this state as the 1-particle RhoCI density.

 Excited State   2:      Singlet-A      5.3316 eV  232.55 nm  f=0.0031  <S**2>=0.000
      31 -> 34         0.29870
      32 -> 35        -0.19724
      33 -> 34         0.13922
      33 -> 35         0.58267

 Excited State   3:      Singlet-A      5.5395 eV  223.82 nm  f=0.0031  <S**2>=0.000
      31 -> 34        -0.36015
      31 -> 35         0.13687
      32 -> 34         0.11822
      32 -> 35         0.44939
      33 -> 35         0.36697

 Excited State   4:      Singlet-A      6.1606 eV  201.25 nm  f=0.0290  <S**2>=0.000
      31 -> 34         0.14766
      31 -> 35         0.40166
      32 -> 34         0.53272
      32 -> 35        -0.15493

 Excited State   5:      Singlet-A      7.1379 eV  173.70 nm  f=0.5761  <S**2>=0.000
      31 -> 34        -0.12774
      31 -> 35         0.52714
      32 -> 34        -0.39435
      32 -> 35        -0.15344

 Excited State   6:      Singlet-A      7.1493 eV  173.42 nm  f=0.5676  <S**2>=0.000
      31 -> 34         0.48184
      31 -> 35         0.16359
      32 -> 34        -0.12084
      32 -> 35         0.44495

 Excited State   7:      Singlet-A      7.2911 eV  170.05 nm  f=0.0408  <S**2>=0.000
      32 -> 36         0.10364
      33 -> 36         0.67096
      33 -> 37         0.10690
      33 -> 38        -0.10165

 Excited State   8:      Singlet-A      7.7514 eV  159.95 nm  f=0.0003  <S**2>=0.000
      29 -> 34         0.53472
      30 -> 35        -0.43955

 Excited State   9:      Singlet-A      7.7968 eV  159.02 nm  f=0.0031  <S**2>=0.000
      30 -> 34         0.69369

 Excited State  10:      Singlet-A      7.8454 eV  158.04 nm  f=0.0003  <S**2>=0.000
      29 -> 34         0.44671
      29 -> 35         0.13893
      30 -> 35         0.52093

 The electronic state is 1-A.
 Alpha  occ. eigenvalues --  -14.31836 -10.20925 -10.20153 -10.18897 -10.18449
 Alpha  occ. eigenvalues --  -10.18354 -10.18312 -10.18300 -10.17858  -0.90179
 Alpha  occ. eigenvalues --   -0.84387  -0.75664  -0.73610  -0.68541  -0.63390
 Alpha  occ. eigenvalues --   -0.59654  -0.57605  -0.51079  -0.48018  -0.45721
 Alpha  occ. eigenvalues --   -0.44509  -0.43474  -0.41868  -0.41123  -0.38798
 Alpha  occ. eigenvalues --   -0.38275  -0.36940  -0.34736  -0.33359  -0.32955
 Alpha  occ. eigenvalues --   -0.24321  -0.23889  -0.21989
 Alpha virt. eigenvalues --    0.00367   0.00621   0.09255   0.10062   0.12791
 Alpha virt. eigenvalues --    0.13574   0.14764   0.15916   0.16984   0.17165
 Alpha virt. eigenvalues --    0.17558   0.19169   0.19564   0.20108   0.22709

 Mulliken atomic charges:
              1
     1  C   -0.361977
     2  N   -0.285480
     3  C   -0.283385
     4  C    0.066186
     5  C   -0.198242
     6  C   -0.152321
     7  C   -0.206118
     8  C   -0.122421
     9  C   -0.230615
    10  H    0.209591
    11  H    0.236024
    12  H    0.227770
    13  H    0.395551
    14  H    0.171991
    15  H    0.210613
    16  H    0.055862
    17  H    0.074188
    18  H    0.065346
    19  H    0.078238
    20  H    0.049200
 Sum of Mulliken atomic charges =  -0.00000

 Dipole moment (field-independent basis, Debye):
    X=            -12.3145    Y=              0.5462    Z=             -1.2953  Tot=             12.3945
 Quadrupole moment (field-independent basis, Debye-Ang):
   XX=            -38.0643   YY=            -54.3197   ZZ=            -55.9229
   XY=             -0.6212   XZ=              2.8227   YZ=              0.4816

 Summary of Natural Population Analysis:

                                       Natural Population
                Natural  -----------------------------------------------
    Atom  No    Charge         Core      Valence    Rydberg      Total
 -----------------------------------------------------------------------
      C    1   -0.53921      1.99945     4.52781    0.01195     6.53921
      N    2   -0.17099      1.99933     5.16508    0.00658     7.17099
      C    3   -0.30305      1.99922     4.28701    0.01681     6.30305
      C    4   -0.28487      1.99902     4.26635    0.01950     6.28487
      C    5   -0.24544      1.99905     4.23273    0.01365     6.24544
      C    6   -0.28263      1.99911     4.26661    0.01691     6.28263
      C    7   -0.39004      1.99910     4.37182    0.01912     6.39004
      C    8   -0.21886      1.99911     4.20477    0.01498     6.21886
      C    9   -0.33444      1.99905     4.32009    0.01530     6.33444
      H   10    0.25882      0.00000     0.74069    0.00049     0.74118
      H   11    0.28561      0.00000     0.71439    0.00000     0.71439
      H   12    0.26791      0.00000     0.73111    0.00099     0.73209
      H   13    0.42930      0.00000     0.56676    0.00394     0.57070
      H   14    0.22560      0.00000     0.76731    0.00709     0.77440
      H   15    0.28860      0.00000     0.71140    0.00000     0.71140
      H   16    0.19447      0.00000     0.80471    0.00082     0.80553
      H   17    0.21049      0.00000     0.78869    0.00082     0.78951
      H   18    0.20717      0.00000     0.79218    0.00065     0.79283
      H   19    0.21147      0.00000     0.78763    0.00091     0.78853
      H   20    0.18878      0.00000     0.81122    0.00000     0.81122
 =======================================================================
   * Total *   -0.00131     17.99245    47.85837    0.15049    66.00131

 Normal termination of Gaussian 09 at Mon Oct  4 13:46:14 2021.
