 Gaussian 09, Revision A.02,

 -----------------------------------
 #p opt b3lyp/6-31G* scf=(xqc,tight)
 -----------------------------------

 -------------------
 COc1ccccc1OC_conf_0
 -------------------
 Symbolic Z-matrix:
 Charge =  0 Multiplicity = 1

 SCF Done:  E(RB3LYP) =  -461.279738592     A.U. after   14 cycles
 SCF Done:  E(RB3LYP) =  -461.281829441     A.U. after   12 cycles
 SCF Done:  E(RB3LYP) =  -461.282642908     A.U. after   11 cycles
 SCF Done:  E(RB3LYP) =  -461.282975305     A.U. after   11 cycles
 SCF Done:  E(RB3LYP) =  -461.283411965     A.U. after   12 cycles
 SCF Done:  E(RB3LYP) =  -461.283733115     A.U. after   13 cycles
 SCF Done:  E(RB3LYP) =  -461.283987106     A.U. after   11 cycles
 SCF Done:  E(RB3LYP) =  -461.283748239     A.U. after   15 cycles
 SCF Done:  E(RB3LYP) =  -461.284419684     A.U. after   13 cycles
 SCF Done:  E(RB3LYP) =  -461.284802893     A.U. after   12 cycles
 SCF Done:  E(RB3LYP) =  -461.286019610     A.U. after   13 cycles
 SCF Done:  E(RB3LYP) =  -461.286061688     A.U. after   13 cycles
 SCF Done:  E(RB3LYP) =  -461.286112560     A.U. after   11 cycles
 SCF Done:  E(RB3LYP) =  -461.286255139     A.U. after   12 cycles
 SCF Done:  E(RB3LYP) =  -461.286263894     A.U. after   11 cycles
 SCF Done:  E(RB3LYP) =  -461.286263247     A.U. after   11 cycles
 SCF Done:  E(RB3LYP) =  -461.286266233     A.U. after   10 cycles
 SCF Done:  E(RB3LYP) =  -461.286266220     A.U. after    6 cycles
 Optimization completed.
    -- Stationary point found.
 Normal termination of Gaussian 09 at Thu Sep 30 14:51:46 2021.

 ----------------------------------------------------------------------
 #p freq b3lyp/6-31G* volume NMR pop=NPA density=current Geom=AllCheck
 Guess=Read
 ----------------------------------------------------------------------

 COc1ccccc1OC_conf_0
 -------------------
 Redundant internal coordinates taken from checkpoint file:
 C8H10O2_e0c2_conf_0.chk
 Charge =  0 Multiplicity = 1

 SCF Done:  E(RB3LYP) =  -461.286266220     A.U. after    1 cycles

  1  C    Isotropic =   133.0934   Anisotropy =    78.6651

  2  O    Isotropic =   266.7517   Anisotropy =    90.0663

  3  C    Isotropic =    47.7723   Anisotropy =   113.1388

  4  C    Isotropic =    72.1307   Anisotropy =   139.0575

  5  C    Isotropic =    75.5748   Anisotropy =   153.1413

  6  C    Isotropic =    72.4108   Anisotropy =   157.5311

  7  C    Isotropic =    85.0395   Anisotropy =   141.7316

  8  C    Isotropic =    43.6859   Anisotropy =   116.3762

  9  O    Isotropic =   247.4098   Anisotropy =    93.5526

 10  C    Isotropic =   137.6104   Anisotropy =    65.2072

 11  H    Isotropic =    28.5188   Anisotropy =     8.4846

 12  H    Isotropic =    29.0143   Anisotropy =     8.2413

 13  H    Isotropic =    27.8534   Anisotropy =     6.7477

 14  H    Isotropic =    25.3326   Anisotropy =     5.8871

 15  H    Isotropic =    25.4530   Anisotropy =     3.7910

 16  H    Isotropic =    25.3360   Anisotropy =     4.3313

 17  H    Isotropic =    25.8016   Anisotropy =     7.4248

 18  H    Isotropic =    28.2307   Anisotropy =     8.1295

 19  H    Isotropic =    28.6202   Anisotropy =     8.3512

 20  H    Isotropic =    28.6589   Anisotropy =     8.5741

  Exact polarizability: 113.816   0.789 102.908  -2.088   3.510  46.116
 Approx polarizability: 172.642  -0.477 156.845  -7.346  11.100  69.188

                     1                      2                      3
                     A                      A                      A
 Frequencies --    82.1007                91.9656               137.5722
 Red. masses --     2.3357                 3.0770                 2.6226
 Frc consts  --     0.0093                 0.0153                 0.0292
 IR Inten    --     2.7035                 5.5828                 1.2668

                     4                      5                      6
                     A                      A                      A
 Frequencies --   167.5062               213.5205               242.7166
 Red. masses --     1.3072                 2.7658                 1.9365
 Frc consts  --     0.0216                 0.0743                 0.0672
 IR Inten    --     1.1827                 0.1240                 1.5862

                     7                      8                      9
                     A                      A                      A
 Frequencies --   283.9542               336.4141               360.5640
 Red. masses --     1.7974                 4.2880                 3.8248
 Frc consts  --     0.0854                 0.2859                 0.2930
 IR Inten    --     2.0882                 5.2901                 2.3286

                    10                     11                     12
                     A                      A                      A
 Frequencies --   477.3577               516.2959               543.3044
 Red. masses --     4.3739                 3.8188                 5.6676
 Frc consts  --     0.5872                 0.5998                 0.9857
 IR Inten    --     2.6991                 0.5405                 1.6038

                    13                     14                     15
                     A                      A                      A
 Frequencies --   581.5510               606.1678               735.7806
 Red. masses --     4.5484                 4.9961                 4.2792
 Frc consts  --     0.9063                 1.0816                 1.3649
 IR Inten    --     0.8394                 2.6661                 3.6778

                    16                     17                     18
                     A                      A                      A
 Frequencies --   760.4277               768.4595               834.1864
 Red. masses --     2.2516                 1.7748                 4.8906
 Frc consts  --     0.7671                 0.6175                 2.0051
 IR Inten    --    26.7628                44.6431                 9.1149

                    19                     20                     21
                     A                      A                      A
 Frequencies --   857.1268               928.1674               963.3484
 Red. masses --     1.5011                 1.3625                 1.2261
 Frc consts  --     0.6498                 0.6916                 0.6704
 IR Inten    --     0.4517                 3.2301                 0.0631

                    22                     23                     24
                     A                      A                      A
 Frequencies --  1047.9714              1066.8158              1081.2184
 Red. masses --     7.2960                 3.9325                 2.5537
 Frc consts  --     4.7210                 2.6369                 1.7589
 IR Inten    --    49.6789                24.6905                38.0497

                    25                     26                     27
                     A                      A                      A
 Frequencies --  1143.0810              1183.8197              1185.2071
 Red. masses --     1.7261                 1.2536                 1.2677
 Frc consts  --     1.3288                 1.0351                 1.0492
 IR Inten    --    53.7845                 3.7015                 0.9087

                    28                     29                     30
                     A                      A                      A
 Frequencies --  1192.3301              1211.2278              1221.9616
 Red. masses --     1.1118                 1.5775                 1.3470
 Frc consts  --     0.9313                 1.3635                 1.1850
 IR Inten    --     5.1808                28.3695                 1.4539

                    31                     32                     33
                     A                      A                      A
 Frequencies --  1260.3036              1304.5199              1311.8379
 Red. masses --     2.8446                 2.5607                 2.0885
 Frc consts  --     2.6621                 2.5675                 2.1176
 IR Inten    --   107.0752               149.2608               107.8821

                    34                     35                     36
                     A                      A                      A
 Frequencies --  1357.9150              1484.3156              1493.8644
 Red. masses --     6.3467                 1.4670                 1.2514
 Frc consts  --     6.8952                 1.9042                 1.6455
 IR Inten    --    26.7668                 9.6703                29.8724

                    37                     38                     39
                     A                      A                      A
 Frequencies --  1513.7784              1516.4994              1521.2901
 Red. masses --     1.3863                 1.1800                 1.0488
 Frc consts  --     1.8717                 1.5989                 1.4301
 IR Inten    --     7.6562                 4.7045                 5.4385

                    40                     41                     42
                     A                      A                      A
 Frequencies --  1534.4577              1541.4086              1554.4836
 Red. masses --     1.0951                 1.0519                 2.4158
 Frc consts  --     1.5192                 1.4725                 3.4394
 IR Inten    --    52.5367                 4.3271               117.9202

                    43                     44                     45
                     A                      A                      A
 Frequencies --  1641.7832              1656.7954              3025.7113
 Red. masses --     6.3570                 5.7898                 1.0348
 Frc consts  --    10.0957                 9.3638                 5.5817
 IR Inten    --     2.8294                23.1976                57.6712

                    46                     47                     48
                     A                      A                      A
 Frequencies --  3032.5298              3085.0306              3111.3021
 Red. masses --     1.0393                 1.1065                 1.0956
 Frc consts  --     5.6315                 6.2048                 6.2488
 IR Inten    --    65.5865                42.9858                35.8660

                    49                     50                     51
                     A                      A                      A
 Frequencies --  3150.8027              3157.1845              3188.2894
 Red. masses --     1.1052                 1.0998                 1.0856
 Frc consts  --     6.4645                 6.4592                 6.5019
 IR Inten    --    29.0020                24.3835                 1.5637

                    52                     53                     54
                     A                      A                      A
 Frequencies --  3202.0531              3214.5798              3224.6688
 Red. masses --     1.0905                 1.0947                 1.0927
 Frc consts  --     6.5879                 6.6648                 6.6945
 IR Inten    --    19.6791                20.0036                 9.1940

 - Thermochemistry -
 -------------------
 Temperature   298.150 Kelvin.  Pressure   1.00000 Atm.
 Atom     1 has atomic number  6 and mass  12.00000

 Molecular mass:   138.06808 amu.
 Principal axes and moments of inertia in atomic units:
                           1         2         3
     Eigenvalues --  1095.465841278.750162268.44327
           X            0.99939   0.03390   0.00837
           Y           -0.03380   0.99936  -0.01142
           Z           -0.00875   0.01113   0.99990
 This molecule is an asymmetric top.
 Rotational symmetry number  1.
 Warning -- assumption of classical behavior for rotation
           may cause significant error
 Rotational temperatures (Kelvin)      0.07907     0.06773     0.03818
 Rotational constants (GHZ):           1.64746     1.41133     0.79559
 Zero-point vibrational energy     436083.8 (Joules/Mol)
                                  104.22654 (Kcal/Mol)
 Warning -- explicit consideration of  14 degrees of freedom as
           vibrations may cause significant error
 Vibrational temperatures:    118.12   132.32   197.94   241.00   307.21
          (Kelvin)            349.21   408.55   484.02   518.77   686.81
                              742.83   781.69   836.72   872.14  1058.62
                             1094.08  1105.64  1200.21  1233.21  1335.42
                             1386.04  1507.80  1534.91  1555.63  1644.64
                             1703.25  1705.25  1715.49  1742.68  1758.13
                             1813.29  1876.91  1887.44  1953.73  2135.60
                             2149.34  2177.99  2181.90  2188.79  2207.74
                             2217.74  2236.55  2362.16  2383.76  4353.32
                             4363.13  4438.67  4476.46  4533.30  4542.48
                             4587.23  4607.03  4625.06  4639.57

 Zero-point correction=                           0.166096 (Hartree/Particle)
 Thermal correction to Energy=                    0.175682
 Thermal correction to Enthalpy=                  0.176626
 Thermal correction to Gibbs Free Energy=         0.131272
 Sum of electronic and zero-point Energies=           -461.120171
 Sum of electronic and thermal Energies=              -461.110584
 Sum of electronic and thermal Enthalpies=            -461.109640
 Sum of electronic and thermal Free Energies=         -461.154994

                     E (Thermal)             CV                S
                      KCal/Mol        Cal/Mol-Kelvin    Cal/Mol-Kelvin
 Total                  110.242             35.549             95.456
 Electronic               0.000              0.000              0.000
 Translational            0.889              2.981             40.680
 Rotational               0.889              2.981             29.542
 Vibrational            108.465             29.588             25.234
 Vibration     1          0.600              1.961              3.840
 Vibration     2          0.602              1.955              3.618
 Vibration     3          0.614              1.916              2.837
 Vibration     4          0.624              1.882              2.463
 Vibration     5          0.644              1.820              2.013
 Vibration     6          0.659              1.775              1.783
 Vibration     7          0.682              1.703              1.510
 Vibration     8          0.717              1.603              1.229
 Vibration     9          0.735              1.554              1.120
 Vibration    10          0.834              1.300              0.717
 Vibration    11          0.871              1.214              0.619
 Vibration    12          0.898              1.154              0.558
 Vibration    13          0.938              1.071              0.482
 Vibration    14          0.965              1.019              0.439

 Optimization completed.
    -- Stationary point found.
 Normal termination of Gaussian 09 at Thu Sep 30 15:19:35 2021.
 Gaussian 09:  AM64L-G09RevA.02 11-Jun-2009

 ----------------------------------------------------------------------
 #p TD(NStates=10, Root=1) b3lyp/6-31G* volume pop=NPA density=current
 Geom=AllCheck Guess=Read
 ----------------------------------------------------------------------

 COc1ccccc1OC_conf_0
 -------------------
 Redundant internal coordinates taken from checkpoint file:
 C8H10O2_e0c2_conf_0.chk
 Charge =  0 Multiplicity = 1

                         Standard orientation:
 ---------------------------------------------------------------------
 Center     Atomic      Atomic             Coordinates (Angstroms)
 Number     Number       Type             X           Y           Z
 ---------------------------------------------------------------------
      1          6           0        1.727227   -2.047704    0.553194
      2          8           0        0.814510   -1.764803   -0.508716
      3          6           0       -0.159250   -0.835307   -0.228727
      4          6           0       -1.486660   -1.249385   -0.172314
      5          6           0       -2.517160   -0.329271    0.042819
      6          6           0       -2.207476    1.016676    0.211622
      7          6           0       -0.878285    1.450515    0.155833
      8          6           0        0.153004    0.534602   -0.070850
      9          8           0        1.477297    0.862154   -0.164663
     10          6           0        1.836137    2.229931   -0.056943
     11          1           0        2.387899   -2.834632    0.181435
     12          1           0        1.193101   -2.413056    1.440948
     13          1           0        2.320309   -1.167325    0.819553
     14          1           0       -1.692013   -2.306737   -0.310979
     15          1           0       -3.548441   -0.667804    0.081149
     16          1           0       -2.995633    1.744477    0.383886
     17          1           0       -0.656266    2.504368    0.280969
     18          1           0        2.920059    2.265048   -0.181265
     19          1           0        1.570059    2.643220    0.925233
     20          1           0        1.361259    2.833284   -0.841701
 ---------------------------------------------------------------------

 SCF Done:  E(RB3LYP) =  -461.286266220     A.U. after    3 cycles

 Excitation energies and oscillator strengths:

 Excited State   1:      Singlet-A      5.1515 eV  240.67 nm  f=0.0302  <S**2>=0.000
      36 -> 38        -0.13514
      36 -> 39        -0.33282
      37 -> 38         0.58247
      37 -> 39        -0.16702
 This state for optimization and/or second-order correction.
 Total Energy, E(TD-HF/TD-KS) =  -461.096950501
 Copying the excited state density for this state as the 1-particle RhoCI density.

 Excited State   2:      Singlet-A      5.7607 eV  215.22 nm  f=0.0813  <S**2>=0.000
      36 -> 38         0.33376
      37 -> 38         0.22318
      37 -> 39         0.56964

 Excited State   3:      Singlet-A      6.2998 eV  196.81 nm  f=0.0879  <S**2>=0.000
      35 -> 38         0.59641
      36 -> 38        -0.26860
      36 -> 39        -0.10197
      37 -> 39         0.23519

 Excited State   4:      Singlet-A      6.5538 eV  189.18 nm  f=0.0820  <S**2>=0.000
      35 -> 39         0.49332
      36 -> 38         0.24962
      36 -> 39        -0.40116
      37 -> 38        -0.14239

 Excited State   5:      Singlet-A      6.8955 eV  179.80 nm  f=0.5179  <S**2>=0.000
      34 -> 38         0.13384
      35 -> 38         0.30020
      35 -> 39         0.18421
      36 -> 38         0.30295
      36 -> 39         0.37518
      37 -> 38         0.25236
      37 -> 39        -0.21114

 Excited State   6:      Singlet-A      6.9580 eV  178.19 nm  f=0.2421  <S**2>=0.000
      34 -> 38         0.11708
      35 -> 38        -0.19459
      35 -> 39         0.44989
      36 -> 38        -0.35701
      36 -> 39         0.21750
      37 -> 38         0.12127
      37 -> 39         0.17802

 Excited State   7:      Singlet-A      7.0272 eV  176.43 nm  f=0.0025  <S**2>=0.000
      37 -> 40         0.69441

 Excited State   8:      Singlet-A      7.5912 eV  163.33 nm  f=0.0075  <S**2>=0.000
      37 -> 41         0.68701

 Excited State   9:      Singlet-A      7.7225 eV  160.55 nm  f=0.0002  <S**2>=0.000
      36 -> 40         0.69266

 Excited State  10:      Singlet-A      7.9056 eV  156.83 nm  f=0.0224  <S**2>=0.000
      33 -> 38         0.60047
      33 -> 39        -0.14938
      34 -> 38        -0.29898

 The electronic state is 1-A.
 Alpha  occ. eigenvalues --  -19.17902 -19.15371 -10.24400 -10.24251 -10.23263
 Alpha  occ. eigenvalues --  -10.22280 -10.18631 -10.18516 -10.18171 -10.18066
 Alpha  occ. eigenvalues --   -1.06728  -1.03548  -0.84241  -0.75218  -0.74378
 Alpha  occ. eigenvalues --   -0.70207  -0.67233  -0.60055  -0.58592  -0.53246
 Alpha  occ. eigenvalues --   -0.49874  -0.48775  -0.47100  -0.45464  -0.44609
 Alpha  occ. eigenvalues --   -0.43911  -0.42749  -0.41336  -0.37978  -0.37001
 Alpha  occ. eigenvalues --   -0.35752  -0.34441  -0.32264  -0.31520  -0.26821
 Alpha  occ. eigenvalues --   -0.23680  -0.21094
 Alpha virt. eigenvalues --    0.00768   0.01588   0.08630   0.10046   0.12277
 Alpha virt. eigenvalues --    0.14021   0.14464   0.15261   0.15895   0.16478
 Alpha virt. eigenvalues --    0.16937   0.17976   0.18816   0.19326   0.20253

 Mulliken atomic charges:
              1
     1  C   -0.207482
     2  O   -0.498833
     3  C    0.291675
     4  C   -0.200869
     5  C   -0.127348
     6  C   -0.147201
     7  C   -0.221673
     8  C    0.331046
     9  O   -0.462801
    10  C   -0.224239
    11  H    0.154666
    12  H    0.144470
    13  H    0.156475
    14  H    0.124052
    15  H    0.130529
    16  H    0.123013
    17  H    0.122035
    18  H    0.175334
    19  H    0.166792
    20  H    0.170359
 Sum of Mulliken atomic charges =  -0.00000

 Dipole moment (field-independent basis, Debye):
    X=              1.5185    Y=              1.9686    Z=              1.2597  Tot=              2.7871
 Quadrupole moment (field-independent basis, Debye-Ang):
   XX=            -52.9371   YY=            -51.6901   ZZ=            -61.6734
   XY=              2.7056   XZ=              1.3401   YZ=             -1.9989

 Summary of Natural Population Analysis:

                                       Natural Population
                Natural  -----------------------------------------------
    Atom  No    Charge         Core      Valence    Rydberg      Total
 -----------------------------------------------------------------------
      C    1   -0.30712      1.99941     4.29485    0.01286     6.30712
      O    2   -0.52076      1.99975     6.50828    0.01272     8.52076
      C    3    0.24799      1.99874     3.72634    0.02692     5.75201
      C    4   -0.33256      1.99906     4.31324    0.02026     6.33256
      C    5   -0.19144      1.99912     4.17586    0.01647     6.19144
      C    6   -0.25018      1.99914     4.23236    0.01868     6.25018
      C    7   -0.35452      1.99907     4.33760    0.01784     6.35452
      C    8    0.27921      1.99874     3.69912    0.02293     5.72079
      O    9   -0.45371      1.99975     6.44182    0.01214     8.45371
      C   10   -0.32169      1.99942     4.30799    0.01427     6.32169
      H   11    0.21472      0.00000     0.78374    0.00153     0.78528
      H   12    0.19995      0.00000     0.79799    0.00206     0.80005
      H   13    0.20569      0.00000     0.79237    0.00194     0.79431
      H   14    0.23745      0.00000     0.76129    0.00125     0.76255
      H   15    0.23118      0.00000     0.76797    0.00085     0.76882
      H   16    0.22954      0.00000     0.76960    0.00086     0.77046
      H   17    0.22694      0.00000     0.77208    0.00098     0.77306
      H   18    0.23037      0.00000     0.76909    0.00054     0.76963
      H   19    0.21304      0.00000     0.78498    0.00197     0.78696
      H   20    0.21588      0.00000     0.78212    0.00200     0.78412
 =======================================================================
   * Total *    0.00000     19.99220    53.81872    0.18908    74.00000

 Normal termination of Gaussian 09 at Thu Sep 30 17:31:45 2021.
