 Gaussian 09, Revision A.02,

 -----------------------------------
 #p opt b3lyp/6-31G* scf=(xqc,tight)
 -----------------------------------

 ----------------------------
 Br[Mg]c1ccc(cc1)N(C)C_conf_0
 ----------------------------
 Symbolic Z-matrix:
 Charge =  0 Multiplicity = 1

 SCF Done:  E(RB3LYP) =  -3137.46120304     A.U. after   14 cycles
 SCF Done:  E(RB3LYP) =  -3137.47492464     A.U. after   11 cycles
 SCF Done:  E(RB3LYP) =  -3137.48035572     A.U. after   12 cycles
 SCF Done:  E(RB3LYP) =  -3137.48010774     A.U. after   15 cycles
 SCF Done:  E(RB3LYP) =  -3137.48070771     A.U. after   15 cycles
 SCF Done:  E(RB3LYP) =  -3137.48051558     A.U. after   15 cycles
 SCF Done:  E(RB3LYP) =  -3137.48117941     A.U. after   15 cycles
 SCF Done:  E(RB3LYP) =  -3137.48157541     A.U. after   15 cycles
 SCF Done:  E(RB3LYP) =  -3137.48203415     A.U. after   15 cycles
 SCF Done:  E(RB3LYP) =  -3137.48263129     A.U. after   15 cycles
 SCF Done:  E(RB3LYP) =  -3137.48406691     A.U. after   10 cycles
 SCF Done:  E(RB3LYP) =  -3137.48407282     A.U. after    8 cycles
 SCF Done:  E(RB3LYP) =  -3137.48407364     A.U. after    8 cycles
 SCF Done:  E(RB3LYP) =  -3137.48407396     A.U. after    7 cycles
 SCF Done:  E(RB3LYP) =  -3137.48407414     A.U. after    8 cycles
 SCF Done:  E(RB3LYP) =  -3137.48407422     A.U. after    7 cycles
 SCF Done:  E(RB3LYP) =  -3137.48407427     A.U. after    6 cycles
 SCF Done:  E(RB3LYP) =  -3137.48407429     A.U. after    6 cycles
 Optimization completed.
    -- Stationary point found.
 Normal termination of Gaussian 09 at Sun Oct  3 15:23:18 2021.

 ----------------------------------------------------------------------
 #p freq b3lyp/6-31G* volume NMR pop=NPA density=current Geom=AllCheck
 Guess=Read
 ----------------------------------------------------------------------

 Br[Mg]c1ccc(cc1)N(C)C_conf_0
 ----------------------------
 Redundant internal coordinates taken from checkpoint file:
 C8H10BrMgN_5e25_conf_0.chk
 Charge =  0 Multiplicity = 1

 SCF Done:  E(RB3LYP) =  -3137.48407429     A.U. after    1 cycles

  1  Br   Isotropic =  2948.3901   Anisotropy =   245.9602

  2  Mg   Isotropic =   514.7522   Anisotropy =   276.1407

  3  C    Isotropic =    66.9425   Anisotropy =   169.8564

  4  C    Isotropic =    54.4271   Anisotropy =   158.6970

  5  C    Isotropic =    84.5533   Anisotropy =   136.2272

  6  C    Isotropic =    50.6609   Anisotropy =   154.9791

  7  C    Isotropic =    84.5539   Anisotropy =   136.2266

  8  C    Isotropic =    54.4261   Anisotropy =   158.6941

  9  N    Isotropic =   204.5984   Anisotropy =    88.5089

 10  C    Isotropic =   150.1382   Anisotropy =    52.8587

 11  C    Isotropic =   150.1381   Anisotropy =    52.8585

 12  H    Isotropic =    24.8356   Anisotropy =     8.1152

 13  H    Isotropic =    26.0695   Anisotropy =     9.2385

 14  H    Isotropic =    26.0696   Anisotropy =     9.2385

 15  H    Isotropic =    24.8355   Anisotropy =     8.1158

 16  H    Isotropic =    29.1594   Anisotropy =     9.1524

 17  H    Isotropic =    29.6659   Anisotropy =     7.6481

 18  H    Isotropic =    29.1575   Anisotropy =     9.1536

 19  H    Isotropic =    29.1574   Anisotropy =     9.1523

 20  H    Isotropic =    29.6659   Anisotropy =     7.6481

 21  H    Isotropic =    29.1595   Anisotropy =     9.1537

  Exact polarizability: 229.823  -0.002 120.955  -0.009   0.001  75.011
 Approx polarizability: 298.133  -0.001 198.090  -0.031   0.001 110.364

 ******    1 imaginary frequencies (negative Signs) ******

                     1                      2                      3
                     A                      A                      A
 Frequencies --   -72.3411                34.8227                34.8507
 Red. masses --     2.1425                 6.5175                 7.0311
 Frc consts  --     0.0066                 0.0047                 0.0050
 IR Inten    --     2.8170                 0.1139                 0.9247

                     4                      5                      6
                     A                      A                      A
 Frequencies --    74.7697               122.9283               162.2155
 Red. masses --     2.4238                 3.3988                11.4221
 Frc consts  --     0.0080                 0.0303                 0.1771
 IR Inten    --     0.0000                13.6386                 0.2288

                     7                      8                      9
                     A                      A                      A
 Frequencies --   167.3091               199.9517               209.0776
 Red. masses --     9.4867                 2.3165                 1.0949
 Frc consts  --     0.1565                 0.0546                 0.0282
 IR Inten    --    27.4017                10.2299                 0.0005

                    10                     11                     12
                     A                      A                      A
 Frequencies --   265.3369               303.6932               390.8530
 Red. masses --     3.4487                 3.5043                 4.4447
 Frc consts  --     0.1431                 0.1904                 0.4001
 IR Inten    --     4.7617                22.1576                22.0408

                    13                     14                     15
                     A                      A                      A
 Frequencies --   411.1191               477.7150               496.4127
 Red. masses --     3.0042                 3.6621                 5.3386
 Frc consts  --     0.2992                 0.4924                 0.7751
 IR Inten    --     0.0000                 2.2353                81.3463

                    16                     17                     18
                     A                      A                      A
 Frequencies --   533.2385               605.4106               649.0604
 Red. masses --     2.6209                 4.9619                 7.1357
 Frc consts  --     0.4391                 1.0715                 1.7712
 IR Inten    --     9.8005                34.6046                 0.0137

                    19                     20                     21
                     A                      A                      A
 Frequencies --   725.9319               768.3833               814.4454
 Red. masses --     3.0303                 5.4044                 1.9098
 Frc consts  --     0.9409                 1.8800                 0.7464
 IR Inten    --     0.4769                 0.5806                42.3196

                    22                     23                     24
                     A                      A                      A
 Frequencies --   820.9901               946.9732               949.3633
 Red. masses --     1.2487                 1.2676                 1.3475
 Frc consts  --     0.4959                 0.6698                 0.7155
 IR Inten    --     0.0000                 0.3139                 0.0000

                    25                     26                     27
                     A                      A                      A
 Frequencies --   971.3878              1013.1764              1093.4729
 Red. masses --     3.2739                 4.5959                 1.5071
 Frc consts  --     1.8201                 2.7797                 1.0617
 IR Inten    --     8.6470                 2.9708                27.2349

                    28                     29                     30
                     A                      A                      A
 Frequencies --  1094.5050              1148.3604              1151.5257
 Red. masses --     3.0197                 1.2981                 1.7086
 Frc consts  --     2.1313                 1.0086                 1.3349
 IR Inten    --    45.9409                 0.0491                 1.3970

                    31                     32                     33
                     A                      A                      A
 Frequencies --  1164.3237              1209.6365              1247.3305
 Red. masses --     1.2344                 1.6454                 1.1651
 Frc consts  --     0.9859                 1.4185                 1.0680
 IR Inten    --     0.0000                26.8170                38.6139

                    34                     35                     36
                     A                      A                      A
 Frequencies --  1284.5696              1325.6427              1378.3073
 Red. masses --     3.5906                 2.4310                 1.9518
 Frc consts  --     3.4909                 2.5170                 2.1846
 IR Inten    --    61.5304                 1.4021                 5.9719

                    37                     38                     39
                     A                      A                      A
 Frequencies --  1397.8304              1447.6427              1477.8568
 Red. masses --     3.3351                 2.1848                 1.2367
 Frc consts  --     3.8394                 2.6977                 1.5914
 IR Inten    --   280.2876                 0.0579                 1.1876

                    40                     41                     42
                     A                      A                      A
 Frequencies --  1508.7043              1514.8337              1516.2646
 Red. masses --     1.0396                 1.2442                 1.0458
 Frc consts  --     1.3943                 1.6822                 1.4166
 IR Inten    --     0.0001                21.3038                 8.0137

                    43                     44                     45
                     A                      A                      A
 Frequencies --  1545.7328              1552.8601              1563.8620
 Red. masses --     1.0799                 1.7020                 1.2284
 Frc consts  --     1.5202                 2.4180                 1.7701
 IR Inten    --     7.2018                 0.9601               143.4078

                    46                     47                     48
                     A                      A                      A
 Frequencies --  1584.8816              1648.6284              3005.2907
 Red. masses --     5.0102                 4.8568                 1.0381
 Frc consts  --     7.4147                 7.7775                 5.5239
 IR Inten    --     9.5710               295.7648               103.4723

                    49                     50                     51
                     A                      A                      A
 Frequencies --  3014.0628              3047.7637              3049.0885
 Red. masses --     1.0416                 1.1028                 1.1065
 Frc consts  --     5.5753                 6.0355                 6.0610
 IR Inten    --    63.5462                 0.0024                89.2623

                    52                     53                     54
                     A                      A                      A
 Frequencies --  3135.3870              3136.0219              3141.6589
 Red. masses --     1.0879                 1.0887                 1.0965
 Frc consts  --     6.3014                 6.3084                 6.3764
 IR Inten    --     4.6072                46.3144                 0.5746

                    55                     56                     57
                     A                      A                      A
 Frequencies --  3154.9195              3215.7931              3216.0794
 Red. masses --     1.0938                 1.0898                 1.0902
 Frc consts  --     6.4146                 6.6402                 6.6439
 IR Inten    --    47.2660                27.0310                18.1628

 - Thermochemistry -
 -------------------
 Temperature   298.150 Kelvin.  Pressure   1.00000 Atm.
 Atom     1 has atomic number 35 and mass  78.91834

 Molecular mass:   222.98471 amu.
 Principal axes and moments of inertia in atomic units:
                           1         2         3
     Eigenvalues --   517.62925********************
           X            1.00000  -0.00000   0.00000
           Y            0.00000   1.00000  -0.00000
           Z           -0.00000   0.00000   1.00000
 This molecule is an asymmetric top.
 Rotational symmetry number  1.
 Warning -- assumption of classical behavior for rotation
           may cause significant error
 Rotational temperatures (Kelvin)      0.16733     0.00846     0.00807
 Rotational constants (GHZ):           3.48655     0.17621     0.16809
    1 imaginary frequencies ignored.
 Zero-point vibrational energy     431386.9 (Joules/Mol)
                                  103.10394 (Kcal/Mol)
 Warning -- explicit consideration of  16 degrees of freedom as
           vibrations may cause significant error
 Vibrational temperatures:     50.10    50.14   107.58   176.87   233.39
          (Kelvin)            240.72   287.69   300.82   381.76   436.95
                              562.35   591.51   687.32   714.23   767.21
                              871.05   933.85  1044.45  1105.53  1171.80
                             1181.22  1362.48  1365.92  1397.61  1457.73
                             1573.26  1574.75  1652.23  1656.79  1675.20
                             1740.39  1794.63  1848.21  1907.30  1983.07
                             2011.16  2082.83  2126.30  2170.69  2179.51
                             2181.56  2223.96  2234.22  2250.05  2280.29
                             2372.01  4323.94  4336.56  4385.05  4386.95
                             4511.12  4512.03  4520.14  4539.22  4626.80
                             4627.22

 Zero-point correction=                           0.164307 (Hartree/Particle)
 Thermal correction to Energy=                    0.175877
 Thermal correction to Enthalpy=                  0.176821
 Thermal correction to Gibbs Free Energy=         0.123880
 Sum of electronic and zero-point Energies=          -3137.319768
 Sum of electronic and thermal Energies=             -3137.308197
 Sum of electronic and thermal Enthalpies=           -3137.307253
 Sum of electronic and thermal Free Energies=        -3137.360194

                     E (Thermal)             CV                S
                      KCal/Mol        Cal/Mol-Kelvin    Cal/Mol-Kelvin
 Total                  110.364             40.499            111.423
 Electronic               0.000              0.000              0.000
 Translational            0.889              2.981             42.108
 Rotational               0.889              2.981             32.409
 Vibrational            108.587             34.537             36.905
 Vibration     1          0.594              1.983              5.534
 Vibration     2          0.594              1.983              5.532
 Vibration     3          0.599              1.966              4.024
 Vibration     4          0.610              1.930              3.054
 Vibration     5          0.622              1.889              2.524
 Vibration     6          0.624              1.883              2.466
 Vibration     7          0.638              1.840              2.134
 Vibration     8          0.642              1.827              2.052
 Vibration     9          0.671              1.737              1.626
 Vibration    10          0.695              1.667              1.396
 Vibration    11          0.759              1.490              0.997
 Vibration    12          0.775              1.446              0.923
 Vibration    13          0.834              1.299              0.716
 Vibration    14          0.852              1.258              0.667
 Vibration    15          0.888              1.176              0.580
 Vibration    16          0.964              1.020              0.440

 Normal termination of Gaussian 09 at Sun Oct  3 16:26:01 2021.
 Gaussian 09:  AM64L-G09RevA.02 11-Jun-2009

 ----------------------------------------------------------------------
 #p TD(NStates=10, Root=1) b3lyp/6-31G* volume pop=NPA density=current
 Geom=AllCheck Guess=Read
 ----------------------------------------------------------------------

 Br[Mg]c1ccc(cc1)N(C)C_conf_0
 ----------------------------
 Redundant internal coordinates taken from checkpoint file:
 C8H10BrMgN_5e25_conf_0.chk
 Charge =  0 Multiplicity = 1

                         Standard orientation:
 ---------------------------------------------------------------------
 Center     Atomic      Atomic             Coordinates (Angstroms)
 Number     Number       Type             X           Y           Z
 ---------------------------------------------------------------------
      1         35           0       -4.403766   -0.000052   -0.000199
      2         12           0       -2.065294    0.000098    0.000312
      3          6           0       -0.004517    0.000162    0.000665
      4          6           0        0.753941    1.190222    0.000466
      5          6           0        2.146012    1.206085    0.000021
      6          6           0        2.883669   -0.000000   -0.000362
      7          6           0        2.145881   -1.206005   -0.000049
      8          6           0        0.753810   -1.189985    0.000422
      9          7           0        4.268075   -0.000072   -0.001070
     10          6           0        4.994708   -1.255810    0.000109
     11          6           0        4.994836    1.255591    0.000011
     12          1           0        0.253818    2.159256    0.000742
     13          1           0        2.659190    2.161342   -0.000005
     14          1           0        2.658950   -2.161319   -0.000169
     15          1           0        0.253585   -2.158967    0.000689
     16          1           0        4.767648   -1.861990    0.889277
     17          1           0        6.066739   -1.050610   -0.000553
     18          1           0        4.766978   -1.863729   -0.887641
     19          1           0        4.766900    1.863634   -0.887614
     20          1           0        6.066845    1.050283   -0.000998
     21          1           0        4.768108    1.861693    0.889305
 ---------------------------------------------------------------------

 SCF Done:  E(RB3LYP) =  -3137.48407429     A.U. after    1 cycles

 Excitation energies and oscillator strengths:

 Excited State   1:      Singlet-A      3.4124 eV  363.33 nm  f=0.0073  <S**2>=0.000
      56 -> 57         0.70397
 This state for optimization and/or second-order correction.
 Total Energy, E(TD-HF/TD-KS) =  -3137.35866923
 Copying the excited state density for this state as the 1-particle RhoCI density.

 Excited State   2:      Singlet-A      4.2198 eV  293.81 nm  f=0.0000  <S**2>=0.000
      56 -> 59         0.70477

 Excited State   3:      Singlet-A      4.2847 eV  289.37 nm  f=0.3181  <S**2>=0.000
      56 -> 58         0.69885

 Excited State   4:      Singlet-A      4.6380 eV  267.32 nm  f=0.0254  <S**2>=0.000
      55 -> 58        -0.22465
      55 -> 61         0.12998
      56 -> 60         0.65512

 Excited State   5:      Singlet-A      4.7336 eV  261.93 nm  f=0.0000  <S**2>=0.000
      55 -> 57         0.70590

 Excited State   6:      Singlet-A      5.2527 eV  236.04 nm  f=0.5633  <S**2>=0.000
      54 -> 57         0.57772
      56 -> 61         0.38965

 Excited State   7:      Singlet-A      5.4656 eV  226.84 nm  f=0.0204  <S**2>=0.000
      51 -> 57        -0.10451
      53 -> 57         0.66601
      54 -> 58         0.19930

 Excited State   8:      Singlet-A      5.4928 eV  225.72 nm  f=0.0394  <S**2>=0.000
      52 -> 57         0.69045
      54 -> 59         0.13388

 Excited State   9:      Singlet-A      5.5567 eV  223.13 nm  f=0.0104  <S**2>=0.000
      51 -> 60         0.10686
      54 -> 59        -0.20784
      55 -> 58         0.62831
      56 -> 60         0.18368

 Excited State  10:      Singlet-A      5.5583 eV  223.06 nm  f=0.0020  <S**2>=0.000
      55 -> 59         0.69944

 The electronic state is 1-A.
 Alpha  occ. eigenvalues -- -482.87203 -61.83431 -56.35164 -56.35027 -56.35022
 Alpha  occ. eigenvalues --  -46.83333 -14.35336 -10.22248 -10.22004 -10.22003
 Alpha  occ. eigenvalues --  -10.18053 -10.18052 -10.17331 -10.17331 -10.15392
 Alpha  occ. eigenvalues --   -8.54341  -6.49084  -6.48694  -6.48682  -3.12155
 Alpha  occ. eigenvalues --   -2.60762  -2.60641  -2.60632  -2.60321  -2.60321
 Alpha  occ. eigenvalues --   -1.86794  -1.86720  -1.86128  -0.94630  -0.82636
 Alpha  occ. eigenvalues --   -0.74160  -0.73087  -0.71838  -0.71802  -0.64928
 Alpha  occ. eigenvalues --   -0.58928  -0.56285  -0.52216  -0.47541  -0.46442
 Alpha  occ. eigenvalues --   -0.44271  -0.43422  -0.41209  -0.41081  -0.40938
 Alpha  occ. eigenvalues --   -0.39002  -0.38189  -0.35444  -0.32314  -0.32165
 Alpha  occ. eigenvalues --   -0.27840  -0.27404  -0.27311  -0.25448  -0.23804
 Alpha  occ. eigenvalues --   -0.18615
 Alpha virt. eigenvalues --   -0.03596  -0.01247  -0.00705   0.01128   0.03697
 Alpha virt. eigenvalues --    0.07346   0.09034   0.10706   0.12171   0.12803
 Alpha virt. eigenvalues --    0.13700   0.14303   0.14783   0.16700   0.17035

 Mulliken atomic charges:
              1
     1  Br  -0.276849
     2  Mg  -0.127120
     3  C    0.028476
     4  C   -0.188331
     5  C   -0.152773
     6  C    0.359888
     7  C   -0.152768
     8  C   -0.188309
     9  N   -0.411941
    10  C   -0.340067
    11  C   -0.340067
    12  H    0.149578
    13  H    0.143526
    14  H    0.143528
    15  H    0.149579
    16  H    0.207139
    17  H    0.187524
    18  H    0.207163
    19  H    0.207162
    20  H    0.187524
    21  H    0.207139
 Sum of Mulliken atomic charges =  -0.00000

 Dipole moment (field-independent basis, Debye):
    X=             20.3809    Y=             -0.0002    Z=              0.0016  Tot=             20.3809
 Quadrupole moment (field-independent basis, Debye-Ang):
   XX=            -74.4799   YY=            -77.2270   ZZ=            -88.0008
   XY=             -0.0009   XZ=              0.0013   YZ=             -0.0000

 Summary of Natural Population Analysis:

                                       Natural Population
                Natural  -----------------------------------------------
    Atom  No    Charge         Core      Valence    Rydberg      Total
 -----------------------------------------------------------------------
     Br    1   -0.67160     27.99974     7.66143    0.01043    35.67160
     Mg    2    0.61868      9.99819     1.35168    0.03145    11.38132
      C    3   -0.43020      1.99928     4.39709    0.03383     6.43020
      C    4   -0.22594      1.99915     4.21069    0.01610     6.22594
      C    5   -0.22847      1.99906     4.21744    0.01197     6.22847
      C    6    0.17846      1.99902     3.80422    0.01829     5.82154
      C    7   -0.22846      1.99906     4.21744    0.01197     6.22846
      C    8   -0.22595      1.99915     4.21070    0.01610     6.22595
      N    9   -0.27484      1.99934     5.26553    0.00997     7.27484
      C   10   -0.48879      1.99945     4.47695    0.01240     6.48879
      C   11   -0.48879      1.99945     4.47695    0.01240     6.48879
      H   12    0.23717      0.00000     0.76021    0.00262     0.76283
      H   13    0.23525      0.00000     0.76327    0.00148     0.76475
      H   14    0.23525      0.00000     0.76327    0.00148     0.76475
      H   15    0.23717      0.00000     0.76021    0.00262     0.76283
      H   16    0.25567      0.00000     0.74331    0.00103     0.74433
      H   17    0.24914      0.00000     0.75040    0.00046     0.75086
      H   18    0.25570      0.00000     0.74328    0.00102     0.74430
      H   19    0.25570      0.00000     0.74328    0.00102     0.74430
      H   20    0.24914      0.00000     0.75040    0.00046     0.75086
      H   21    0.25567      0.00000     0.74331    0.00103     0.74433
 =======================================================================
   * Total *   -0.00006     55.99089    55.81104    0.19813   112.00006

 Normal termination of Gaussian 09 at Sun Oct  3 19:44:46 2021.
