 Gaussian 09, Revision A.02,

 -----------------------------------
 #p opt b3lyp/6-31G* scf=(xqc,tight)
 -----------------------------------

 --------------------
 COc1ccc(cc1)C_conf_0
 --------------------
 Symbolic Z-matrix:
 Charge =  0 Multiplicity = 1

 SCF Done:  E(RB3LYP) =  -386.087012954     A.U. after   14 cycles
 SCF Done:  E(RB3LYP) =  -386.088422029     A.U. after   12 cycles
 SCF Done:  E(RB3LYP) =  -386.088525364     A.U. after   11 cycles
 SCF Done:  E(RB3LYP) =  -386.088562718     A.U. after   10 cycles
 SCF Done:  E(RB3LYP) =  -386.088585323     A.U. after   15 cycles
 SCF Done:  E(RB3LYP) =  -386.088592336     A.U. after   10 cycles
 SCF Done:  E(RB3LYP) =  -386.088592760     A.U. after    7 cycles
 SCF Done:  E(RB3LYP) =  -386.088592875     A.U. after    6 cycles
 SCF Done:  E(RB3LYP) =  -386.088593050     A.U. after    7 cycles
 SCF Done:  E(RB3LYP) =  -386.088593318     A.U. after    7 cycles
 SCF Done:  E(RB3LYP) =  -386.088605718     A.U. after   11 cycles
 SCF Done:  E(RB3LYP) =  -386.088223266     A.U. after   11 cycles
 SCF Done:  E(RB3LYP) =  -386.088605719     A.U. after   11 cycles
 SCF Done:  E(RB3LYP) =  -386.088325387     A.U. after   11 cycles
 SCF Done:  E(RB3LYP) =  -386.088605809     A.U. after   11 cycles
 SCF Done:  E(RB3LYP) =  -386.088609472     A.U. after    9 cycles
 SCF Done:  E(RB3LYP) =  -386.087602034     A.U. after   12 cycles
 SCF Done:  E(RB3LYP) =  -386.088609484     A.U. after   12 cycles
 Optimization completed.
    -- Stationary point found.
 Normal termination of Gaussian 09 at Tue Sep 28 14:29:14 2021.

 ----------------------------------------------------------------------
 #p freq b3lyp/6-31G* volume NMR pop=NPA density=current Geom=AllCheck
 Guess=Read
 ----------------------------------------------------------------------

 COc1ccc(cc1)C_conf_0
 --------------------
 Redundant internal coordinates taken from checkpoint file:
 C8H10O_fd16_conf_0.chk
 Charge =  0 Multiplicity = 1

 SCF Done:  E(RB3LYP) =  -386.088609484     A.U. after    1 cycles

  1  C    Isotropic =   137.5824   Anisotropy =    64.7108

  2  O    Isotropic =   241.1136   Anisotropy =    74.2108

  3  C    Isotropic =    40.9016   Anisotropy =   126.0825

  4  C    Isotropic =    78.9255   Anisotropy =   133.5952

  5  C    Isotropic =    65.9059   Anisotropy =   144.4855

  6  C    Isotropic =    67.4393   Anisotropy =   167.0715

  7  C    Isotropic =    66.8180   Anisotropy =   151.8775

  8  C    Isotropic =    86.5697   Anisotropy =   142.6169

  9  C    Isotropic =   168.4021   Anisotropy =    34.3497

 10  H    Isotropic =    28.3469   Anisotropy =     7.9624

 11  H    Isotropic =    28.6757   Anisotropy =     7.9810

 12  H    Isotropic =    28.6745   Anisotropy =     7.9764

 13  H    Isotropic =    25.6173   Anisotropy =     5.7185

 14  H    Isotropic =    25.2741   Anisotropy =     6.1089

 15  H    Isotropic =    25.1857   Anisotropy =     6.9190

 16  H    Isotropic =    25.8366   Anisotropy =     7.2211

 17  H    Isotropic =    30.4387   Anisotropy =     7.1129

 18  H    Isotropic =    29.9298   Anisotropy =     7.7277

 19  H    Isotropic =    29.8084   Anisotropy =     8.2500

  Exact polarizability: 122.933   0.721  88.286   0.238   0.007  42.706
 Approx polarizability: 172.586  -2.393 149.631   0.245   0.045  62.046

 ******    1 imaginary frequencies (negative Signs) ******

                     1                      2                      3
                     A                      A                      A
 Frequencies --   -55.9463                75.9717               151.3257
 Red. masses --     1.0396                 2.9703                 3.4365
 Frc consts  --     0.0019                 0.0101                 0.0464
 IR Inten    --     0.1164                 3.8113                 0.5925

                     4                      5                      6
                     A                      A                      A
 Frequencies --   226.7606               242.5726               343.1022
 Red. masses --     2.9801                 1.1319                 2.7572
 Frc consts  --     0.0903                 0.0392                 0.1912
 IR Inten    --     2.0396                 0.0156                 0.5534

                     7                      8                      9
                     A                      A                      A
 Frequencies --   344.7624               421.6625               425.9692
 Red. masses --     3.7075                 4.7361                 3.2108
 Frc consts  --     0.2596                 0.4961                 0.3433
 IR Inten    --     3.7751                 0.6850                 0.0293

                    10                     11                     12
                     A                      A                      A
 Frequencies --   525.1466               530.1192               655.1542
 Red. masses --     2.4610                 4.0589                 6.8102
 Frc consts  --     0.3999                 0.6721                 1.7222
 IR Inten    --     6.5799                 6.2623                 0.2685

                    13                     14                     15
                     A                      A                      A
 Frequencies --   714.5340               729.4075               822.3161
 Red. masses --     3.3643                 4.3301                 1.3815
 Frc consts  --     1.0120                 1.3573                 0.5504
 IR Inten    --     0.2112                10.8954                21.2687

                    16                     17                     18
                     A                      A                      A
 Frequencies --   837.2587               843.3063               938.5918
 Red. masses --     1.4260                 5.3685                 1.2750
 Frc consts  --     0.5890                 2.2495                 0.6618
 IR Inten    --    25.1349                 4.0476                 0.3902

                    19                     20                     21
                     A                      A                      A
 Frequencies --   955.5074              1018.2192              1032.7829
 Red. masses --     1.2958                 1.4024                 2.8010
 Frc consts  --     0.6970                 0.8566                 1.7603
 IR Inten    --     0.3333                 1.9958                 0.1375

                    22                     23                     24
                     A                      A                      A
 Frequencies --  1074.9661              1081.8983              1147.9763
 Red. masses --     1.5210                 5.6602                 1.2734
 Frc consts  --     1.0355                 3.9035                 0.9887
 IR Inten    --    10.4220                48.5119                 9.8567

                    25                     26                     27
                     A                      A                      A
 Frequencies --  1184.5709              1211.9224              1216.9417
 Red. masses --     1.2715                 1.1611                 1.4084
 Frc consts  --     1.0512                 1.0047                 1.2289
 IR Inten    --     0.7712                15.5659                 8.2029

                    28                     29                     30
                     A                      A                      A
 Frequencies --  1242.8022              1297.3418              1347.3124
 Red. masses --     2.9263                 4.8337                 1.4367
 Frc consts  --     2.6630                 4.7934                 1.5366
 IR Inten    --     1.2545               242.2564                 6.5998

                    31                     32                     33
                     A                      A                      A
 Frequencies --  1356.4278              1444.0474              1462.4381
 Red. masses --     4.8895                 1.2435                 2.7318
 Frc consts  --     5.3004                 1.5277                 3.4423
 IR Inten    --    39.8815                 0.2806                 0.4344

                    34                     35                     36
                     A                      A                      A
 Frequencies --  1498.3987              1516.6604              1518.9404
 Red. masses --     1.1912                 1.0459                 1.0485
 Frc consts  --     1.5757                 1.4175                 1.4253
 IR Inten    --    14.8453                 5.0938                 4.9542

                    37                     38                     39
                     A                      A                      A
 Frequencies --  1526.7993              1534.7790              1568.5804
 Red. masses --     1.1006                 1.0643                 2.4574
 Frc consts  --     1.5117                 1.4771                 3.5624
 IR Inten    --     4.6967                41.5610               113.1040

                    40                     41                     42
                     A                      A                      A
 Frequencies --  1636.1056              1677.2877              3021.2343
 Red. masses --     6.0158                 5.7956                 1.0350
 Frc consts  --     9.4878                 9.6065                 5.5663
 IR Inten    --     7.2720                40.6787                58.0130

                    43                     44                     45
                     A                      A                      A
 Frequencies --  3038.7216              3078.1474              3090.3970
 Red. masses --     1.0391                 1.1065                 1.0988
 Frc consts  --     5.6531                 6.1772                 6.1831
 IR Inten    --    40.7015                47.2832                25.0348

                    46                     47                     48
                     A                      A                      A
 Frequencies --  3120.6169              3155.0488              3174.9039
 Red. masses --     1.1010                 1.0992                 1.0891
 Frc consts  --     6.3170                 6.4470                 6.4683
 IR Inten    --    18.2838                29.1573                19.2571

                    49                     50                     51
                     A                      A                      A
 Frequencies --  3179.0434              3213.1120              3224.0596
 Red. masses --     1.0886                 1.0929                 1.0909
 Frc consts  --     6.4823                 6.6480                 6.6813
 IR Inten    --    19.4444                 9.2602                12.5338

 - Thermochemistry -
 -------------------
 Temperature   298.150 Kelvin.  Pressure   1.00000 Atm.
 Atom     1 has atomic number  6 and mass  12.00000

 Molecular mass:   122.07317 amu.
 Principal axes and moments of inertia in atomic units:
                           1         2         3
     Eigenvalues --   376.533021846.772872200.56901
           X            0.99992   0.01258   0.00016
           Y           -0.01258   0.99992  -0.00007
           Z           -0.00016   0.00007   1.00000
 This molecule is an asymmetric top.
 Rotational symmetry number  1.
 Rotational temperatures (Kelvin)      0.23003     0.04690     0.03936
 Rotational constants (GHZ):           4.79305     0.97724     0.82012
    1 imaginary frequencies ignored.
 Zero-point vibrational energy     422736.1 (Joules/Mol)
                                  101.03635 (Kcal/Mol)
 Warning -- explicit consideration of  10 degrees of freedom as
           vibrations may cause significant error
 Vibrational temperatures:    109.31   217.72   326.26   349.01   493.65
          (Kelvin)            496.04   606.68   612.87   755.57   762.72
                              942.62  1028.05  1049.45  1183.13  1204.63
                             1213.33  1350.42  1374.76  1464.99  1485.94
                             1546.63  1556.61  1651.68  1704.33  1743.68
                             1750.91  1788.11  1866.58  1938.48  1951.59
                             2077.66  2104.12  2155.86  2182.13  2185.41
                             2196.72  2208.20  2256.83  2353.99  2413.24
                             4346.88  4372.04  4428.76  4446.39  4489.87
                             4539.41  4567.97  4573.93  4622.95  4638.70

 Zero-point correction=                           0.161012 (Hartree/Particle)
 Thermal correction to Energy=                    0.168919
 Thermal correction to Enthalpy=                  0.169863
 Thermal correction to Gibbs Free Energy=         0.128438
 Sum of electronic and zero-point Energies=           -385.927598
 Sum of electronic and thermal Energies=              -385.919691
 Sum of electronic and thermal Enthalpies=            -385.918746
 Sum of electronic and thermal Free Energies=         -385.960171

                     E (Thermal)             CV                S
                      KCal/Mol        Cal/Mol-Kelvin    Cal/Mol-Kelvin
 Total                  105.998             30.348             87.186
 Electronic               0.000              0.000              0.000
 Translational            0.889              2.981             40.313
 Rotational               0.889              2.981             28.816
 Vibrational            104.221             24.386             18.057
 Vibration     1          0.599              1.965              3.992
 Vibration     2          0.619              1.901              2.655
 Vibration     3          0.650              1.800              1.904
 Vibration     4          0.659              1.775              1.784
 Vibration     5          0.722              1.589              1.198
 Vibration     6          0.723              1.586              1.190
 Vibration     7          0.784              1.423              0.886
 Vibration     8          0.788              1.414              0.872
 Vibration     9          0.880              1.194              0.598
 Vibration    10          0.885              1.183              0.587

 Normal termination of Gaussian 09 at Tue Sep 28 14:33:12 2021.
 Gaussian 09:  AM64L-G09RevA.02 11-Jun-2009

 ----------------------------------------------------------------------
 #p TD(NStates=10, Root=1) b3lyp/6-31G* volume pop=NPA density=current
 Geom=AllCheck Guess=Read
 ----------------------------------------------------------------------

 COc1ccc(cc1)C_conf_0
 --------------------
 Redundant internal coordinates taken from checkpoint file:
 C8H10O_fd16_conf_0.chk
 Charge =  0 Multiplicity = 1

                         Standard orientation:
 ---------------------------------------------------------------------
 Center     Atomic      Atomic             Coordinates (Angstroms)
 Number     Number       Type             X           Y           Z
 ---------------------------------------------------------------------
      1          6           0       -3.223087   -0.510010    0.004842
      2          8           0       -2.305441    0.569492    0.002013
      3          6           0       -0.968474    0.279623    0.000963
      4          6           0       -0.104516    1.382068   -0.001340
      5          6           0        1.272673    1.189184   -0.005327
      6          6           0        1.834811   -0.095906   -0.005850
      7          6           0        0.955797   -1.183141   -0.007529
      8          6           0       -0.430987   -1.012605   -0.003490
      9          6           0        3.332556   -0.300669    0.009646
     10          1           0       -4.217273   -0.059020    0.007822
     11          1           0       -3.107617   -1.137990    0.898731
     12          1           0       -3.113276   -1.137997   -0.889754
     13          1           0       -0.534199    2.379138   -0.003006
     14          1           0        1.927159    2.058132   -0.008473
     15          1           0        1.356790   -2.194784   -0.013096
     16          1           0       -1.073864   -1.885592   -0.007144
     17          1           0        3.864314    0.634404   -0.194465
     18          1           0        3.648193   -1.034217   -0.741938
     19          1           0        3.680667   -0.669270    0.983722
 ---------------------------------------------------------------------

 SCF Done:  E(RB3LYP) =  -386.088609484     A.U. after    1 cycles

 Excitation energies and oscillator strengths:

 Excited State   1:      Singlet-A      5.0690 eV  244.59 nm  f=0.0323  <S**2>=0.000
      32 -> 35        -0.28681
      33 -> 34         0.62871
      33 -> 35         0.11333
 This state for optimization and/or second-order correction.
 Total Energy, E(TD-HF/TD-KS) =  -385.902328277
 Copying the excited state density for this state as the 1-particle RhoCI density.

 Excited State   2:      Singlet-A      5.8492 eV  211.97 nm  f=0.1564  <S**2>=0.000
      32 -> 34         0.31690
      33 -> 34        -0.15599
      33 -> 35         0.60854

 Excited State   3:      Singlet-A      6.9139 eV  179.33 nm  f=0.4937  <S**2>=0.000
      31 -> 34        -0.16535
      32 -> 34         0.46471
      32 -> 35        -0.35224
      33 -> 34        -0.17924
      33 -> 35        -0.28947

 Excited State   4:      Singlet-A      7.0054 eV  176.98 nm  f=0.4397  <S**2>=0.000
      31 -> 34         0.20446
      32 -> 34         0.40095
      32 -> 35         0.47950
      33 -> 34         0.18187
      33 -> 35        -0.15245

 Excited State   5:      Singlet-A      7.2348 eV  171.37 nm  f=0.0054  <S**2>=0.000
      33 -> 36         0.69405

 Excited State   6:      Singlet-A      7.5943 eV  163.26 nm  f=0.0013  <S**2>=0.000
      29 -> 34        -0.11226
      30 -> 34         0.69146

 Excited State   7:      Singlet-A      7.6826 eV  161.38 nm  f=0.0079  <S**2>=0.000
      33 -> 37         0.69203

 Excited State   8:      Singlet-A      7.8085 eV  158.78 nm  f=0.1227  <S**2>=0.000
      31 -> 34         0.64856
      32 -> 35        -0.23426
      33 -> 34        -0.11460

 Excited State   9:      Singlet-A      7.9456 eV  156.04 nm  f=0.0000  <S**2>=0.000
      30 -> 35         0.69051

 Excited State  10:      Singlet-A      8.1684 eV  151.79 nm  f=0.0007  <S**2>=0.000
      32 -> 36         0.67989
      32 -> 37        -0.11257

 The electronic state is 1-A.
 Alpha  occ. eigenvalues --  -19.17211 -10.23940 -10.23781 -10.18508 -10.18287
 Alpha  occ. eigenvalues --  -10.18223 -10.18182 -10.17843 -10.17759  -1.05770
 Alpha  occ. eigenvalues --   -0.84542  -0.76594  -0.74035  -0.71045  -0.65954
 Alpha  occ. eigenvalues --   -0.60400  -0.57192  -0.52699  -0.47870  -0.46389
 Alpha  occ. eigenvalues --   -0.45859  -0.43706  -0.41925  -0.41327  -0.41202
 Alpha  occ. eigenvalues --   -0.37877  -0.36522  -0.35247  -0.34600  -0.31896
 Alpha  occ. eigenvalues --   -0.30558  -0.24383  -0.20770
 Alpha virt. eigenvalues --    0.00456   0.02060   0.09527   0.10679   0.12751
 Alpha virt. eigenvalues --    0.13840   0.14716   0.15362   0.15726   0.16985
 Alpha virt. eigenvalues --    0.17238   0.19073   0.20607   0.20929   0.24069

 Mulliken atomic charges:
              1
     1  C   -0.225825
     2  O   -0.447183
     3  C    0.351261
     4  C   -0.190042
     5  C   -0.210624
     6  C    0.201419
     7  C   -0.219823
     8  C   -0.195680
     9  C   -0.533086
    10  H    0.176850
    11  H    0.171028
    12  H    0.171077
    13  H    0.123033
    14  H    0.111844
    15  H    0.109517
    16  H    0.118418
    17  H    0.158028
    18  H    0.160859
    19  H    0.168928
 Sum of Mulliken atomic charges =  -0.00000

 Dipole moment (field-independent basis, Debye):
    X=             -1.4730    Y=             -1.3384    Z=              0.0445  Tot=              1.9907
 Quadrupole moment (field-independent basis, Debye-Ang):
   XX=            -41.9102   YY=            -52.2752   ZZ=            -56.3698
   XY=              3.3720   XZ=              0.1207   YZ=             -0.0208

 Summary of Natural Population Analysis:

                                       Natural Population
                Natural  -----------------------------------------------
    Atom  No    Charge         Core      Valence    Rydberg      Total
 -----------------------------------------------------------------------
      C    1   -0.32497      1.99942     4.31143    0.01412     6.32497
      O    2   -0.42720      1.99975     6.41578    0.01167     8.42720
      C    3    0.33021      1.99878     3.64792    0.02309     5.66979
      C    4   -0.32126      1.99906     4.30132    0.02087     6.32126
      C    5   -0.27914      1.99907     4.26211    0.01797     6.27914
      C    6    0.04068      1.99904     3.94470    0.01558     5.95932
      C    7   -0.29609      1.99907     4.27742    0.01960     6.29609
      C    8   -0.33251      1.99905     4.31596    0.01749     6.33251
      C    9   -0.69457      1.99939     4.68751    0.00767     6.69457
      H   10    0.23098      0.00000     0.76848    0.00054     0.76902
      H   11    0.21675      0.00000     0.78112    0.00212     0.78325
      H   12    0.21673      0.00000     0.78118    0.00209     0.78327
      H   13    0.23571      0.00000     0.76302    0.00126     0.76429
      H   14    0.22526      0.00000     0.77372    0.00102     0.77474
      H   15    0.22391      0.00000     0.77502    0.00107     0.77609
      H   16    0.22552      0.00000     0.77347    0.00100     0.77448
      H   17    0.23856      0.00000     0.76038    0.00106     0.76144
      H   18    0.24270      0.00000     0.75518    0.00212     0.75730
      H   19    0.24873      0.00000     0.74968    0.00160     0.75127
 =======================================================================
   * Total *    0.00000     17.99264    47.84540    0.16195    66.00000

 Normal termination of Gaussian 09 at Tue Sep 28 14:40:16 2021.
