 Gaussian 09, Revision A.02,

 -----------------------------------
 #p opt b3lyp/6-31G* scf=(xqc,tight)
 -----------------------------------

 -------------------
 OCCOc1ccccc1_conf_0
 -------------------
 Symbolic Z-matrix:
 Charge =  0 Multiplicity = 1

 SCF Done:  E(RB3LYP) =  -461.289749754     A.U. after   14 cycles
 SCF Done:  E(RB3LYP) =  -461.291770172     A.U. after   11 cycles
 SCF Done:  E(RB3LYP) =  -461.291890869     A.U. after   15 cycles
 SCF Done:  E(RB3LYP) =  -461.291904658     A.U. after    9 cycles
 SCF Done:  E(RB3LYP) =  -461.291910120     A.U. after    9 cycles
 SCF Done:  E(RB3LYP) =  -461.291914590     A.U. after   10 cycles
 SCF Done:  E(RB3LYP) =  -461.291917395     A.U. after    8 cycles
 SCF Done:  E(RB3LYP) =  -461.291918089     A.U. after    8 cycles
 Optimization completed.
    -- Stationary point found.
 Normal termination of Gaussian 09 at Thu Sep 30 10:19:50 2021.

 ----------------------------------------------------------------------
 #p freq b3lyp/6-31G* volume NMR pop=NPA density=current Geom=AllCheck
 Guess=Read
 ----------------------------------------------------------------------

 OCCOc1ccccc1_conf_0
 -------------------
 Redundant internal coordinates taken from checkpoint file:
 C8H10O2_653a_conf_0.chk
 Charge =  0 Multiplicity = 1

 SCF Done:  E(RB3LYP) =  -461.291918089     A.U. after    1 cycles

  1  O    Isotropic =   306.8513   Anisotropy =   102.4729

  2  C    Isotropic =   128.1899   Anisotropy =    62.0156

  3  C    Isotropic =   124.9258   Anisotropy =    57.8621

  4  O    Isotropic =   228.6337   Anisotropy =    56.5281

  5  C    Isotropic =    39.5978   Anisotropy =   126.5402

  6  C    Isotropic =    86.1445   Anisotropy =   143.3797

  7  C    Isotropic =    67.2898   Anisotropy =   164.5366

  8  C    Isotropic =    76.3584   Anisotropy =   156.2025

  9  C    Isotropic =    67.4123   Anisotropy =   164.1606

 10  C    Isotropic =    79.0434   Anisotropy =   135.5346

 11  H    Isotropic =    32.1091   Anisotropy =    18.6788

 12  H    Isotropic =    28.0623   Anisotropy =     4.7302

 13  H    Isotropic =    28.0612   Anisotropy =     4.7287

 14  H    Isotropic =    28.2463   Anisotropy =     4.9920

 15  H    Isotropic =    28.2463   Anisotropy =     4.9922

 16  H    Isotropic =    25.7273   Anisotropy =     7.8396

 17  H    Isotropic =    25.0365   Anisotropy =     4.9129

 18  H    Isotropic =    25.4129   Anisotropy =     3.8239

 19  H    Isotropic =    25.0693   Anisotropy =     4.4223

 20  H    Isotropic =    25.5478   Anisotropy =     6.3826

  Exact polarizability: 125.506   0.514  91.788   0.004  -0.000  43.500
 Approx polarizability: 171.895   1.632 154.548   0.011   0.002  63.873

                     1                      2                      3
                     A                      A                      A
 Frequencies --    46.9687                97.5984               111.3699
 Red. masses --     5.5184                 2.0932                 4.9740
 Frc consts  --     0.0072                 0.0117                 0.0363
 IR Inten    --     0.1803                11.8060                 1.1603

                     4                      5                      6
                     A                      A                      A
 Frequencies --   141.9771               239.6292               254.4390
 Red. masses --     2.7608                 2.7274                 1.3182
 Frc consts  --     0.0328                 0.0923                 0.0503
 IR Inten    --     5.8753                39.0164                88.4358

                     7                      8                      9
                     A                      A                      A
 Frequencies --   304.9556               327.7977               424.9087
 Red. masses --     3.8824                 5.8187                 3.1418
 Frc consts  --     0.2127                 0.3684                 0.3342
 IR Inten    --     4.1148                 4.3899                 0.0208

                    10                     11                     12
                     A                      A                      A
 Frequencies --   513.6492               520.4097               598.6849
 Red. masses --     4.5479                 2.8997                 7.4060
 Frc consts  --     0.7070                 0.4627                 1.5640
 IR Inten    --    12.9029                 4.3828                 2.4093

                    13                     14                     15
                     A                      A                      A
 Frequencies --   630.3522               702.4384               767.0029
 Red. masses --     6.3949                 2.3450                 1.5882
 Frc consts  --     1.4971                 0.6817                 0.5505
 IR Inten    --     0.7351                10.5030                54.2200

                    16                     17                     18
                     A                      A                      A
 Frequencies --   829.1263               837.8503               857.7762
 Red. masses --     1.2327                 6.2606                 1.1133
 Frc consts  --     0.4993                 2.5894                 0.4826
 IR Inten    --     0.2987                13.9843                 0.8620

                    19                     20                     21
                     A                      A                      A
 Frequencies --   895.1446               956.9415               982.6209
 Red. masses --     1.4407                 1.3202                 1.2249
 Frc consts  --     0.6802                 0.7123                 0.6968
 IR Inten    --     8.1953                 0.0156                 0.3118

                    22                     23                     24
                     A                      A                      A
 Frequencies --  1013.6199              1045.7558              1056.2479
 Red. masses --     5.8470                 2.3640                 2.2863
 Frc consts  --     3.5394                 1.5232                 1.5029
 IR Inten    --     1.0606                40.4163                 5.7001

                    25                     26                     27
                     A                      A                      A
 Frequencies --  1086.2633              1096.2950              1116.2646
 Red. masses --     3.8338                 5.2871                 1.5796
 Frc consts  --     2.6654                 3.7439                 1.1597
 IR Inten    --    75.6015                70.8929                 8.4476

                    28                     29                     30
                     A                      A                      A
 Frequencies --  1174.7936              1189.2777              1207.9582
 Red. masses --     1.5179                 1.1008                 1.1417
 Frc consts  --     1.2343                 0.9173                 0.9815
 IR Inten    --     0.0106                 2.7754                13.0832

                    31                     32                     33
                     A                      A                      A
 Frequencies --  1238.8273              1264.7309              1295.9018
 Red. masses --     1.1349                 1.2204                 4.8420
 Frc consts  --     1.0262                 1.1501                 4.7909
 IR Inten    --     2.6664                58.3378               286.3872

                    34                     35                     36
                     A                      A                      A
 Frequencies --  1318.3389              1350.2270              1371.5509
 Red. masses --     1.1108                 2.2409                 2.1584
 Frc consts  --     1.1374                 2.4070                 2.3923
 IR Inten    --     0.5159                30.6685                11.7296

                    37                     38                     39
                     A                      A                      A
 Frequencies --  1402.1843              1493.8452              1506.1979
 Red. masses --     1.3622                 1.5848                 2.3017
 Frc consts  --     1.5780                 2.0837                 3.0765
 IR Inten    --    22.1819                 1.7468                 1.3911

                    40                     41                     42
                     A                      A                      A
 Frequencies --  1542.3647              1555.7817              1564.4199
 Red. masses --     1.5756                 1.3465                 1.1201
 Frc consts  --     2.2084                 1.9202                 1.6151
 IR Inten    --    97.6125                25.8037                 2.3770

                    43                     44                     45
                     A                      A                      A
 Frequencies --  1645.8101              1665.7841              3007.9120
 Red. masses --     5.9130                 5.5851                 1.0550
 Frc consts  --     9.4366                 9.1310                 5.6240
 IR Inten    --    20.4758                77.1154                39.7711

                    46                     47                     48
                     A                      A                      A
 Frequencies --  3030.1450              3038.7740              3079.7212
 Red. masses --     1.0548                 1.1080                 1.1111
 Frc consts  --     5.7060                 6.0284                 6.2091
 IR Inten    --    37.9197                28.0689                70.0147

                    49                     50                     51
                     A                      A                      A
 Frequencies --  3183.2040              3191.0524              3207.0241
 Red. masses --     1.0850                 1.0893                 1.0929
 Frc consts  --     6.4778                 6.5355                 6.6230
 IR Inten    --     2.1401                15.8531                32.1709

                    52                     53                     54
                     A                      A                      A
 Frequencies --  3215.5561              3224.9393              3768.9855
 Red. masses --     1.0954                 1.0925                 1.0666
 Frc consts  --     6.6731                 6.6942                 8.9270
 IR Inten    --    12.7504                 7.1639                23.0070

 - Thermochemistry -
 -------------------
 Temperature   298.150 Kelvin.  Pressure   1.00000 Atm.
 Atom     1 has atomic number  8 and mass  15.99491

 Molecular mass:   138.06808 amu.
 Principal axes and moments of inertia in atomic units:
                           1         2         3
     Eigenvalues --   398.316723085.154783460.67383
           X            0.99999   0.00514  -0.00000
           Y           -0.00514   0.99999  -0.00000
           Z            0.00000   0.00000   1.00000
 This molecule is an asymmetric top.
 Rotational symmetry number  1.
 Rotational temperatures (Kelvin)      0.21745     0.02807     0.02503
 Rotational constants (GHZ):           4.53092     0.58498     0.52150
 Zero-point vibrational energy     437781.8 (Joules/Mol)
                                  104.63235 (Kcal/Mol)
 Warning -- explicit consideration of  12 degrees of freedom as
           vibrations may cause significant error
 Vibrational temperatures:     67.58   140.42   160.24   204.27   344.77
          (Kelvin)            366.08   438.76   471.63   611.35   739.03
                              748.75   861.37   906.94  1010.65  1103.54
                             1192.93  1205.48  1234.15  1287.91  1376.82
                             1413.77  1458.37  1504.61  1519.70  1562.89
                             1577.32  1606.05  1690.26  1711.10  1737.98
                             1782.39  1819.66  1864.51  1896.79  1942.67
                             1973.35  2017.43  2149.31  2167.08  2219.12
                             2238.42  2250.85  2367.95  2396.69  4327.71
                             4359.70  4372.11  4431.03  4579.91  4591.21
                             4614.19  4626.46  4639.96  5422.72

 Zero-point correction=                           0.166742 (Hartree/Particle)
 Thermal correction to Energy=                    0.176185
 Thermal correction to Enthalpy=                  0.177129
 Thermal correction to Gibbs Free Energy=         0.131361
 Sum of electronic and zero-point Energies=           -461.125176
 Sum of electronic and thermal Energies=              -461.115733
 Sum of electronic and thermal Enthalpies=            -461.114789
 Sum of electronic and thermal Free Energies=         -461.160557

                     E (Thermal)             CV                S
                      KCal/Mol        Cal/Mol-Kelvin    Cal/Mol-Kelvin
 Total                  110.558             34.914             96.327
 Electronic               0.000              0.000              0.000
 Translational            0.889              2.981             40.680
 Rotational               0.889              2.981             29.832
 Vibrational            108.780             28.953             25.815
 Vibration     1          0.595              1.979              4.941
 Vibration     2          0.603              1.951              3.502
 Vibration     3          0.607              1.940              3.245
 Vibration     4          0.615              1.911              2.777
 Vibration     5          0.657              1.780              1.806
 Vibration     6          0.665              1.755              1.700
 Vibration     7          0.696              1.664              1.390
 Vibration     8          0.711              1.620              1.271
 Vibration     9          0.787              1.416              0.875
 Vibration    10          0.869              1.220              0.625
 Vibration    11          0.875              1.205              0.609
 Vibration    12          0.957              1.035              0.452

 Optimization completed.
    -- Stationary point found.
 Normal termination of Gaussian 09 at Thu Sep 30 10:45:55 2021.
 Gaussian 09:  AM64L-G09RevA.02 11-Jun-2009

 ----------------------------------------------------------------------
 #p TD(NStates=10, Root=1) b3lyp/6-31G* volume pop=NPA density=current
 Geom=AllCheck Guess=Read
 ----------------------------------------------------------------------

 OCCOc1ccccc1_conf_0
 -------------------
 Redundant internal coordinates taken from checkpoint file:
 C8H10O2_653a_conf_0.chk
 Charge =  0 Multiplicity = 1

                         Standard orientation:
 ---------------------------------------------------------------------
 Center     Atomic      Atomic             Coordinates (Angstroms)
 Number     Number       Type             X           Y           Z
 ---------------------------------------------------------------------
      1          8           0       -4.098048    0.519671   -0.000425
      2          6           0       -3.073421   -0.464955    0.000557
      3          6           0       -1.751983    0.288199    0.000371
      4          8           0       -0.720388   -0.689282   -0.000393
      5          6           0        0.581086   -0.269405   -0.000182
      6          6           0        0.980561    1.071871   -0.000111
      7          6           0        2.344544    1.381853    0.000044
      8          6           0        3.308325    0.376254    0.000114
      9          6           0        2.898653   -0.961690    0.000025
     10          6           0        1.546781   -1.286613   -0.000113
     11          1           0       -4.951595    0.062495   -0.000618
     12          1           0       -3.120220   -1.112035   -0.888401
     13          1           0       -3.121039   -1.110910    0.890287
     14          1           0       -1.688029    0.928066    0.890826
     15          1           0       -1.689097    0.928570   -0.889812
     16          1           0        0.248756    1.871745   -0.000217
     17          1           0        2.646993    2.425956    0.000103
     18          1           0        4.364982    0.627458    0.000231
     19          1           0        3.638122   -1.758329    0.000077
     20          1           0        1.211341   -2.319211   -0.000163
 ---------------------------------------------------------------------

 SCF Done:  E(RB3LYP) =  -461.291918089     A.U. after    1 cycles

 Excitation energies and oscillator strengths:

 Excited State   1:      Singlet-A      5.1981 eV  238.52 nm  f=0.0262  <S**2>=0.000
      36 -> 39         0.31785
      37 -> 38         0.62292
 This state for optimization and/or second-order correction.
 Total Energy, E(TD-HF/TD-KS) =  -461.100892612
 Copying the excited state density for this state as the 1-particle RhoCI density.

 Excited State   2:      Singlet-A      5.9889 eV  207.02 nm  f=0.0995  <S**2>=0.000
      36 -> 38        -0.34288
      37 -> 38        -0.10686
      37 -> 39         0.60459

 Excited State   3:      Singlet-A      6.8936 eV  179.85 nm  f=0.0001  <S**2>=0.000
      37 -> 40         0.69353

 Excited State   4:      Singlet-A      6.9873 eV  177.44 nm  f=0.2271  <S**2>=0.000
      34 -> 38        -0.26669
      35 -> 38        -0.13360
      36 -> 39         0.55838
      37 -> 38        -0.28387

 Excited State   5:      Singlet-A      7.0296 eV  176.37 nm  f=0.6607  <S**2>=0.000
      34 -> 39         0.12294
      35 -> 38        -0.14679
      36 -> 38         0.58678
      37 -> 39         0.32280

 Excited State   6:      Singlet-A      7.1180 eV  174.18 nm  f=0.0339  <S**2>=0.000
      35 -> 38         0.67821
      36 -> 38         0.10996
      36 -> 39         0.12137

 Excited State   7:      Singlet-A      7.4303 eV  166.86 nm  f=0.0000  <S**2>=0.000
      37 -> 41         0.69673

 Excited State   8:      Singlet-A      7.4588 eV  166.23 nm  f=0.0005  <S**2>=0.000
      35 -> 39         0.70555

 Excited State   9:      Singlet-A      7.6625 eV  161.81 nm  f=0.0001  <S**2>=0.000
      35 -> 40         0.69370

 Excited State  10:      Singlet-A      7.6901 eV  161.23 nm  f=0.0009  <S**2>=0.000
      32 -> 38         0.22372
      33 -> 38         0.66453

 The electronic state is 1-A.
 Alpha  occ. eigenvalues --  -19.17530 -19.15184 -10.24399 -10.23978 -10.23762
 Alpha  occ. eigenvalues --  -10.18733 -10.18646 -10.18376 -10.18050 -10.17903
 Alpha  occ. eigenvalues --   -1.06246  -1.02376  -0.84455  -0.76961  -0.74105
 Alpha  occ. eigenvalues --   -0.71558  -0.63488  -0.59919  -0.58381  -0.54267
 Alpha  occ. eigenvalues --   -0.50657  -0.49476  -0.47422  -0.46414  -0.43978
 Alpha  occ. eigenvalues --   -0.42070  -0.41732  -0.40623  -0.36625  -0.36555
 Alpha  occ. eigenvalues --   -0.35559  -0.34042  -0.32160  -0.31342  -0.27552
 Alpha  occ. eigenvalues --   -0.24600  -0.21557
 Alpha virt. eigenvalues --    0.00395   0.01790   0.06185   0.09525   0.10977
 Alpha virt. eigenvalues --    0.13752   0.14622   0.14936   0.15566   0.17148
 Alpha virt. eigenvalues --    0.17170   0.19067   0.19444   0.20521   0.22562

 Mulliken atomic charges:
              1
     1  O   -0.619388
     2  C   -0.052171
     3  C   -0.050868
     4  O   -0.465156
     5  C    0.355283
     6  C   -0.196397
     7  C   -0.168793
     8  C   -0.106891
     9  C   -0.162289
    10  C   -0.189936
    11  H    0.403421
    12  H    0.141385
    13  H    0.141368
    14  H    0.173608
    15  H    0.173628
    16  H    0.128339
    17  H    0.120276
    18  H    0.131999
    19  H    0.118925
    20  H    0.123657
 Sum of Mulliken atomic charges =  -0.00000

 Dipole moment (field-independent basis, Debye):
    X=             -2.6369    Y=             -0.5136    Z=              0.0012  Tot=              2.6865
 Quadrupole moment (field-independent basis, Debye-Ang):
   XX=            -46.8276   YY=            -58.0857   ZZ=            -61.6251
   XY=              5.5869   XZ=             -0.0010   YZ=              0.0002

 Summary of Natural Population Analysis:

                                       Natural Population
                Natural  -----------------------------------------------
    Atom  No    Charge         Core      Valence    Rydberg      Total
 -----------------------------------------------------------------------
      O    1   -0.75274      1.99983     6.74047    0.01243     8.75274
      C    2   -0.11045      1.99930     4.09426    0.01689     6.11045
      C    3   -0.13320      1.99925     4.11659    0.01736     6.13320
      O    4   -0.43725      1.99974     6.42533    0.01218     8.43725
      C    5    0.32790      1.99881     3.65035    0.02294     5.67210
      C    6   -0.33199      1.99905     4.31580    0.01714     6.33199
      C    7   -0.28908      1.99915     4.27007    0.01986     6.28908
      C    8   -0.16196      1.99912     4.14697    0.01587     6.16196
      C    9   -0.29152      1.99915     4.27326    0.01912     6.29152
      C   10   -0.31227      1.99907     4.29289    0.02031     6.31227
      H   11    0.48095      0.00000     0.51780    0.00125     0.51905
      H   12    0.20306      0.00000     0.79458    0.00236     0.79694
      H   13    0.20304      0.00000     0.79460    0.00236     0.79696
      H   14    0.22857      0.00000     0.76836    0.00307     0.77143
      H   15    0.22860      0.00000     0.76833    0.00307     0.77140
      H   16    0.22813      0.00000     0.77092    0.00095     0.77187
      H   17    0.22817      0.00000     0.77097    0.00086     0.77183
      H   18    0.22932      0.00000     0.76983    0.00086     0.77068
      H   19    0.22838      0.00000     0.77079    0.00083     0.77162
      H   20    0.23431      0.00000     0.76441    0.00127     0.76569
 =======================================================================
   * Total *   -0.00000     19.99246    53.81658    0.19096    74.00000

 Normal termination of Gaussian 09 at Thu Sep 30 12:57:32 2021.
