 Gaussian 09, Revision A.02,

 -----------------------------------
 #p opt b3lyp/6-31G* scf=(xqc,tight)
 -----------------------------------

 ------------------
 CCOc1ccccc1_conf_0
 ------------------
 Symbolic Z-matrix:
 Charge =  0 Multiplicity = 1

 SCF Done:  E(RB3LYP) =  -386.089606032     A.U. after   14 cycles
 SCF Done:  E(RB3LYP) =  -386.090527888     A.U. after   11 cycles
 SCF Done:  E(RB3LYP) =  -386.090574943     A.U. after    9 cycles
 SCF Done:  E(RB3LYP) =  -386.090576830     A.U. after    8 cycles
 SCF Done:  E(RB3LYP) =  -386.090577059     A.U. after    7 cycles
 Optimization completed.
    -- Stationary point found.
 Normal termination of Gaussian 09 at Thu Sep 30 09:25:04 2021.

 ----------------------------------------------------------------------
 #p freq b3lyp/6-31G* volume NMR pop=NPA density=current Geom=AllCheck
 Guess=Read
 ----------------------------------------------------------------------

 CCOc1ccccc1_conf_0
 ------------------
 Redundant internal coordinates taken from checkpoint file:
 C8H10O_2118_conf_0.chk
 Charge =  0 Multiplicity = 1

 SCF Done:  E(RB3LYP) =  -386.090577059     A.U. after    1 cycles

  1  C    Isotropic =   173.8603   Anisotropy =    21.4289

  2  C    Isotropic =   128.7851   Anisotropy =    54.7650

  3  O    Isotropic =   214.6373   Anisotropy =    60.6781

  4  C    Isotropic =    39.1844   Anisotropy =   127.8090

  5  C    Isotropic =    86.4226   Anisotropy =   142.6642

  6  C    Isotropic =    67.4498   Anisotropy =   163.9898

  7  C    Isotropic =    76.5646   Anisotropy =   155.6975

  8  C    Isotropic =    67.3725   Anisotropy =   164.2690

  9  C    Isotropic =    78.7883   Anisotropy =   135.4679

 10  H    Isotropic =    31.1289   Anisotropy =     8.9321

 11  H    Isotropic =    30.6396   Anisotropy =     7.6628

 12  H    Isotropic =    30.6388   Anisotropy =     7.6623

 13  H    Isotropic =    28.3492   Anisotropy =     5.5326

 14  H    Isotropic =    28.3459   Anisotropy =     5.5419

 15  H    Isotropic =    25.8339   Anisotropy =     7.7983

 16  H    Isotropic =    25.0769   Anisotropy =     4.8781

 17  H    Isotropic =    25.4324   Anisotropy =     3.8275

 18  H    Isotropic =    25.0465   Anisotropy =     4.4349

 19  H    Isotropic =    25.4897   Anisotropy =     6.3479

  Exact polarizability: 119.181  -1.212  89.278   0.026  -0.006  42.295
 Approx polarizability: 166.357   0.752 149.335   0.060  -0.003  61.944

                     1                      2                      3
                     A                      A                      A
 Frequencies --    61.0396               113.4158               165.1589
 Red. masses --     3.9834                 1.7240                 3.2848
 Frc consts  --     0.0087                 0.0131                 0.0528
 IR Inten    --     1.4610                 1.3435                 0.5916

                     4                      5                      6
                     A                      A                      A
 Frequencies --   238.3005               267.4500               343.7142
 Red. masses --     3.2423                 1.3140                 3.4006
 Frc consts  --     0.1085                 0.0554                 0.2367
 IR Inten    --     0.1072                 0.9710                 0.9493

                     7                      8                      9
                     A                      A                      A
 Frequencies --   424.6030               430.9913               521.3029
 Red. masses --     3.1414                 4.1894                 2.8851
 Frc consts  --     0.3337                 0.4585                 0.4619
 IR Inten    --     0.0081                 0.3983                 4.3146

                    10                     11                     12
                     A                      A                      A
 Frequencies --   602.5217               629.2024               702.6135
 Red. masses --     5.7015                 6.4051                 2.3092
 Frc consts  --     1.2195                 1.4940                 0.6716
 IR Inten    --     3.3650                 0.4290                11.2671

                    13                     14                     15
                     A                      A                      A
 Frequencies --   766.6098               813.9308               825.6710
 Red. masses --     1.6055                 4.0028                 1.2083
 Frc consts  --     0.5559                 1.5624                 0.4853
 IR Inten    --    55.0069                11.7427                 0.0001

                    16                     17                     18
                     A                      A                      A
 Frequencies --   846.8426               893.0757               945.7425
 Red. masses --     1.1187                 1.4512                 2.4504
 Frc consts  --     0.4727                 0.6820                 1.2913
 IR Inten    --     0.3710                 6.5242                14.0011

                    19                     20                     21
                     A                      A                      A
 Frequencies --   955.7223               981.7321              1013.4520
 Red. masses --     1.3192                 1.2246                 5.7025
 Frc consts  --     0.7099                 0.6954                 3.4508
 IR Inten    --     0.0487                 0.2544                 0.5897

                    22                     23                     24
                     A                      A                      A
 Frequencies --  1054.8473              1078.6986              1113.4721
 Red. masses --     2.1431                 3.2326                 1.5607
 Frc consts  --     1.4050                 2.2161                 1.1401
 IR Inten    --     1.0536                54.2254                 5.9263

                    25                     26                     27
                     A                      A                      A
 Frequencies --  1154.7639              1188.9889              1195.5235
 Red. masses --     2.1662                 1.1015                 1.5036
 Frc consts  --     1.7019                 0.9175                 1.2662
 IR Inten    --    26.0787                 3.3197                 4.1631

                    28                     29                     30
                     A                      A                      A
 Frequencies --  1206.9792              1291.0712              1312.5340
 Red. masses --     1.1445                 4.6722                 1.1124
 Frc consts  --     0.9824                 4.5885                 1.1291
 IR Inten    --    17.9129               300.4922                 0.2543

                    31                     32                     33
                     A                      A                      A
 Frequencies --  1348.6436              1371.9224              1419.6197
 Red. masses --     2.1719                 2.3478                 1.2627
 Frc consts  --     2.3275                 2.6036                 1.4994
 IR Inten    --    18.7545                12.2578                17.3666

                    34                     35                     36
                     A                      A                      A
 Frequencies --  1450.1486              1505.0039              1515.4307
 Red. masses --     1.3650                 2.3267                 1.0404
 Frc consts  --     1.6912                 3.1050                 1.4077
 IR Inten    --    36.3940                 0.5718                 5.0713

                    37                     38                     39
                     A                      A                      A
 Frequencies --  1530.5578              1542.6866              1558.3772
 Red. masses --     1.0602                 1.6568                 1.3268
 Frc consts  --     1.4634                 2.3231                 1.8984
 IR Inten    --     9.8722                91.1772                 7.8330

                    40                     41                     42
                     A                      A                      A
 Frequencies --  1644.2142              1665.8324              3011.7125
 Red. masses --     5.8688                 5.5683                 1.0553
 Frc consts  --     9.3479                 9.1040                 5.6397
 IR Inten    --    20.4466                71.8196                32.6527

                    43                     44                     45
                     A                      A                      A
 Frequencies --  3048.1886              3062.8991              3134.2337
 Red. masses --     1.1088                 1.0352                 1.1024
 Frc consts  --     6.0702                 5.7221                 6.3803
 IR Inten    --    40.2602                19.5910                24.6176

                    46                     47                     48
                     A                      A                      A
 Frequencies --  3141.0237              3182.5108              3190.0158
 Red. masses --     1.1041                 1.0851                 1.0894
 Frc consts  --     6.4180                 6.4752                 6.5316
 IR Inten    --    28.5126                 2.5050                16.8375

                    49                     50                     51
                     A                      A                      A
 Frequencies --  3207.3038              3215.7961              3226.1823
 Red. masses --     1.0931                 1.0952                 1.0921
 Frc consts  --     6.6248                 6.6730                 6.6974
 IR Inten    --    32.3537                11.9273                 9.0474

 - Thermochemistry -
 -------------------
 Temperature   298.150 Kelvin.  Pressure   1.00000 Atm.
 Atom     1 has atomic number  6 and mass  12.00000

 Molecular mass:   122.07317 amu.
 Principal axes and moments of inertia in atomic units:
                           1         2         3
     Eigenvalues --   370.929421970.041392318.27052
           X            0.99999  -0.00487  -0.00002
           Y            0.00487   0.99999  -0.00004
           Z            0.00002   0.00004   1.00000
 This molecule is an asymmetric top.
 Rotational symmetry number  1.
 Rotational temperatures (Kelvin)      0.23350     0.04397     0.03736
 Rotational constants (GHZ):           4.86546     0.91609     0.77849
 Zero-point vibrational energy     425345.9 (Joules/Mol)
                                  101.66010 (Kcal/Mol)
 Warning -- explicit consideration of  10 degrees of freedom as
           vibrations may cause significant error
 Vibrational temperatures:     87.82   163.18   237.63   342.86   384.80
          (Kelvin)            494.53   610.91   620.10   750.04   866.89
                              905.28  1010.90  1102.98  1171.06  1187.95
                             1218.42  1284.94  1360.71  1375.07  1412.49
                             1458.13  1517.69  1552.00  1602.04  1661.45
                             1710.69  1720.09  1736.57  1857.56  1888.44
                             1940.39  1973.89  2042.51  2086.44  2165.36
                             2180.36  2202.13  2219.58  2242.15  2365.65
                             2396.76  4333.18  4385.66  4406.82  4509.46
                             4519.23  4578.92  4589.72  4614.59  4626.81
                             4641.75

 Zero-point correction=                           0.162006 (Hartree/Particle)
 Thermal correction to Energy=                    0.170251
 Thermal correction to Enthalpy=                  0.171195
 Thermal correction to Gibbs Free Energy=         0.128724
 Sum of electronic and zero-point Energies=           -385.928571
 Sum of electronic and thermal Energies=              -385.920326
 Sum of electronic and thermal Enthalpies=            -385.919382
 Sum of electronic and thermal Free Energies=         -385.961853

                     E (Thermal)             CV                S
                      KCal/Mol        Cal/Mol-Kelvin    Cal/Mol-Kelvin
 Total                  106.834             31.259             89.388
 Electronic               0.000              0.000              0.000
 Translational            0.889              2.981             40.313
 Rotational               0.889              2.981             28.917
 Vibrational            105.057             25.298             20.158
 Vibration     1          0.597              1.973              4.423
 Vibration     2          0.607              1.938              3.210
 Vibration     3          0.624              1.885              2.490
 Vibration     4          0.656              1.782              1.816
 Vibration     5          0.673              1.733              1.613
 Vibration     6          0.722              1.588              1.195
 Vibration     7          0.787              1.417              0.876
 Vibration     8          0.792              1.403              0.855
 Vibration     9          0.876              1.203              0.607
 Vibration    10          0.961              1.026              0.445

 Normal termination of Gaussian 09 at Thu Sep 30 09:48:51 2021.
 Gaussian 09:  AM64L-G09RevA.02 11-Jun-2009

 ----------------------------------------------------------------------
 #p TD(NStates=10, Root=1) b3lyp/6-31G* volume pop=NPA density=current
 Geom=AllCheck Guess=Read
 ----------------------------------------------------------------------

 CCOc1ccccc1_conf_0
 ------------------
 Redundant internal coordinates taken from checkpoint file:
 C8H10O_2118_conf_0.chk
 Charge =  0 Multiplicity = 1

                         Standard orientation:
 ---------------------------------------------------------------------
 Center     Atomic      Atomic             Coordinates (Angstroms)
 Number     Number       Type             X           Y           Z
 ---------------------------------------------------------------------
      1          6           0       -3.613868   -0.138379    0.001366
      2          6           0       -2.238459    0.506304    0.000126
      3          8           0       -1.272211   -0.542168   -0.001844
      4          6           0        0.054128   -0.214705   -0.000878
      5          6           0        0.551343    1.094267   -0.000717
      6          6           0        1.934200    1.305386    0.000167
      7          6           0        2.823240    0.233381    0.000836
      8          6           0        2.317525   -1.071468    0.000611
      9          6           0        0.946022   -1.298154   -0.000219
     10          1           0       -4.391812    0.632778    0.002397
     11          1           0       -3.744595   -0.765655    0.888691
     12          1           0       -3.746402   -0.765047   -0.886126
     13          1           0       -2.101770    1.139506    0.888817
     14          1           0       -2.104105    1.140791   -0.888023
     15          1           0       -0.119270    1.945816   -0.001346
     16          1           0        2.310825    2.325189    0.000292
     17          1           0        3.895270    0.407607    0.001520
     18          1           0        2.997595   -1.919496    0.001136
     19          1           0        0.537168   -2.303929   -0.000348
 ---------------------------------------------------------------------

 SCF Done:  E(RB3LYP) =  -386.090577059     A.U. after    1 cycles

 Excitation energies and oscillator strengths:

 Excited State   1:      Singlet-A      5.1869 eV  239.03 nm  f=0.0274  <S**2>=0.000
      32 -> 35         0.31377
      33 -> 34         0.62444
 This state for optimization and/or second-order correction.
 Total Energy, E(TD-HF/TD-KS) =  -385.899960658
 Copying the excited state density for this state as the 1-particle RhoCI density.

 Excited State   2:      Singlet-A      5.9761 eV  207.47 nm  f=0.1010  <S**2>=0.000
      32 -> 34        -0.33978
      33 -> 34        -0.11082
      33 -> 35         0.60542

 Excited State   3:      Singlet-A      6.9821 eV  177.57 nm  f=0.2487  <S**2>=0.000
      31 -> 34        -0.27526
      32 -> 34        -0.12305
      32 -> 35         0.55611
      33 -> 34        -0.27910
      33 -> 35        -0.12425

 Excited State   4:      Singlet-A      7.0299 eV  176.37 nm  f=0.6563  <S**2>=0.000
      31 -> 35         0.12498
      32 -> 34         0.58996
      32 -> 35         0.14904
      33 -> 35         0.31389

 Excited State   5:      Singlet-A      7.3421 eV  168.87 nm  f=0.0001  <S**2>=0.000
      33 -> 36         0.68950
      33 -> 37         0.14245

 Excited State   6:      Singlet-A      7.6534 eV  162.00 nm  f=0.0009  <S**2>=0.000
      29 -> 34         0.13181
      30 -> 34         0.68736

 Excited State   7:      Singlet-A      7.7278 eV  160.44 nm  f=0.0095  <S**2>=0.000
      33 -> 36        -0.14369
      33 -> 37         0.68284

 Excited State   8:      Singlet-A      7.9324 eV  156.30 nm  f=0.0000  <S**2>=0.000
      30 -> 35         0.68997

 Excited State   9:      Singlet-A      8.0453 eV  154.11 nm  f=0.2259  <S**2>=0.000
      31 -> 34         0.63974
      32 -> 35         0.25523
      33 -> 34        -0.13087

 Excited State  10:      Singlet-A      8.1307 eV  152.49 nm  f=0.0000  <S**2>=0.000
      32 -> 36         0.67952
      32 -> 37         0.17023

 The electronic state is 1-A.
 Alpha  occ. eigenvalues --  -19.17100 -10.24245 -10.24202 -10.18644 -10.18525
 Alpha  occ. eigenvalues --  -10.18361 -10.18278 -10.17890 -10.17793  -1.05766
 Alpha  occ. eigenvalues --   -0.84317  -0.77455  -0.73999  -0.71917  -0.64027
 Alpha  occ. eigenvalues --   -0.59851  -0.58019  -0.53383  -0.48313  -0.48216
 Alpha  occ. eigenvalues --   -0.46128  -0.43824  -0.41627  -0.39554  -0.39529
 Alpha  occ. eigenvalues --   -0.39185  -0.35825  -0.35681  -0.34978  -0.31969
 Alpha  occ. eigenvalues --   -0.31101  -0.24494  -0.21383
 Alpha virt. eigenvalues --    0.00501   0.01918   0.09427   0.10014   0.13082
 Alpha virt. eigenvalues --    0.13948   0.14925   0.15467   0.16796   0.17261
 Alpha virt. eigenvalues --    0.17761   0.19185   0.19219   0.20612   0.23139

 Mulliken atomic charges:
              1
     1  C   -0.460582
     2  C   -0.044876
     3  O   -0.453125
     4  C    0.354827
     5  C   -0.197011
     6  C   -0.168584
     7  C   -0.107159
     8  C   -0.162119
     9  C   -0.190372
    10  H    0.154869
    11  H    0.168470
    12  H    0.168475
    13  H    0.161920
    14  H    0.161901
    15  H    0.121658
    16  H    0.118369
    17  H    0.131249
    18  H    0.118136
    19  H    0.123955
 Sum of Mulliken atomic charges =  -0.00000

 Dipole moment (field-independent basis, Debye):
    X=             -2.2955    Y=              1.1137    Z=              0.0020  Tot=              2.5514
 Quadrupole moment (field-independent basis, Debye-Ang):
   XX=            -45.9800   YY=            -51.8791   ZZ=            -56.4020
   XY=             -1.9585   XZ=              0.0004   YZ=             -0.0026

 Summary of Natural Population Analysis:

                                       Natural Population
                Natural  -----------------------------------------------
    Atom  No    Charge         Core      Valence    Rydberg      Total
 -----------------------------------------------------------------------
      C    1   -0.69802      1.99945     4.69026    0.00830     6.69802
      C    2   -0.11584      1.99927     4.10147    0.01510     6.11584
      O    3   -0.43277      1.99974     6.42069    0.01234     8.43277
      C    4    0.32705      1.99881     3.65105    0.02309     5.67295
      C    5   -0.33309      1.99906     4.31686    0.01718     6.33309
      C    6   -0.29126      1.99915     4.27219    0.01992     6.29126
      C    7   -0.16155      1.99911     4.14660    0.01584     6.16155
      C    8   -0.29272      1.99914     4.27447    0.01911     6.29272
      C    9   -0.31306      1.99907     4.29362    0.02037     6.31306
      H   10    0.24030      0.00000     0.75904    0.00066     0.75970
      H   11    0.24054      0.00000     0.75817    0.00129     0.75946
      H   12    0.24055      0.00000     0.75816    0.00129     0.75945
      H   13    0.22294      0.00000     0.77444    0.00262     0.77706
      H   14    0.22293      0.00000     0.77446    0.00261     0.77707
      H   15    0.22518      0.00000     0.77385    0.00097     0.77482
      H   16    0.22728      0.00000     0.77185    0.00087     0.77272
      H   17    0.22896      0.00000     0.77018    0.00086     0.77104
      H   18    0.22808      0.00000     0.77109    0.00083     0.77192
      H   19    0.23451      0.00000     0.76422    0.00128     0.76549
 =======================================================================
   * Total *   -0.00000     17.99281    47.84266    0.16453    66.00000

 Normal termination of Gaussian 09 at Thu Sep 30 11:50:59 2021.
