 Gaussian 09, Revision A.02,

 -----------------------------------
 #p opt b3lyp/6-31G* scf=(xqc,tight)
 -----------------------------------

 ------------------------
 CC(=O)c1ccc(cc1)F_conf_0
 ------------------------
 Symbolic Z-matrix:
 Charge =  0 Multiplicity = 1

 SCF Done:  E(RB3LYP) =  -484.128062013     A.U. after   15 cycles
 SCF Done:  E(RB3LYP) =  -484.129510660     A.U. after   16 cycles
 SCF Done:  E(RB3LYP) =  -484.129547699     A.U. after   16 cycles
 SCF Done:  E(RB3LYP) =  -484.129409889     A.U. after   13 cycles
 SCF Done:  E(RB3LYP) =  -484.129718851     A.U. after   12 cycles
 SCF Done:  E(RB3LYP) =  -484.129808929     A.U. after   12 cycles
 SCF Done:  E(RB3LYP) =  -484.129840673     A.U. after   12 cycles
 SCF Done:  E(RB3LYP) =  -484.129854239     A.U. after   10 cycles
 SCF Done:  E(RB3LYP) =  -484.129855652     A.U. after    8 cycles
 SCF Done:  E(RB3LYP) =  -484.129855735     A.U. after    7 cycles
 Optimization completed.
    -- Stationary point found.
 Normal termination of Gaussian 09 at Mon Oct  4 06:56:51 2021.

 ----------------------------------------------------------------------
 #p freq b3lyp/6-31G* volume NMR pop=NPA density=current Geom=AllCheck
 Guess=Read
 ----------------------------------------------------------------------

 CC(=O)c1ccc(cc1)F_conf_0
 ------------------------
 Redundant internal coordinates taken from checkpoint file:
 C8H7FO_55da_conf_0.chk
 Charge =  0 Multiplicity = 1

 SCF Done:  E(RB3LYP) =  -484.129855735     A.U. after    1 cycles

  1  C    Isotropic =   164.0048   Anisotropy =    38.8071

  2  C    Isotropic =     4.7857   Anisotropy =   150.6811

  3  O    Isotropic =  -263.8686   Anisotropy =   929.1584

  4  C    Isotropic =    64.6844   Anisotropy =   157.4729

  5  C    Isotropic =    63.6309   Anisotropy =   181.0860

  6  C    Isotropic =    79.3917   Anisotropy =   138.0018

  7  C    Isotropic =    30.2796   Anisotropy =   101.0526

  8  C    Isotropic =    80.6420   Anisotropy =   136.1968

  9  C    Isotropic =    64.9188   Anisotropy =   165.4401

 10  F    Isotropic =   287.7403   Anisotropy =   130.2511

 11  H    Isotropic =    30.2592   Anisotropy =     6.3471

 12  H    Isotropic =    29.7007   Anisotropy =     4.3928

 13  H    Isotropic =    29.7007   Anisotropy =     4.3929

 14  H    Isotropic =    23.9097   Anisotropy =     6.2860

 15  H    Isotropic =    25.3132   Anisotropy =     4.8525

 16  H    Isotropic =    25.4367   Anisotropy =     4.8960

 17  H    Isotropic =    24.5303   Anisotropy =     7.5769

  Exact polarizability: 117.574  -1.087  90.899  -0.001  -0.001  36.585
 Approx polarizability: 185.102 -13.234 159.064  -0.002  -0.001  55.367

                     1                      2                      3
                     A                      A                      A
 Frequencies --    71.6132               109.3841               167.2562
 Red. masses --     3.9478                 8.1502                 1.0326
 Frc consts  --     0.0119                 0.0575                 0.0170
 IR Inten    --     2.9216                 1.4247                 0.2299

                     4                      5                      6
                     A                      A                      A
 Frequencies --   196.0909               296.1672               336.8255
 Red. masses --     4.8571                 6.4424                 5.6726
 Frc consts  --     0.1100                 0.3329                 0.3792
 IR Inten    --     5.0102                 0.1197                 1.1037

                     7                      8                      9
                     A                      A                      A
 Frequencies --   396.8963               425.8709               470.2344
 Red. masses --     6.8608                 3.1081                 3.8242
 Frc consts  --     0.6368                 0.3321                 0.4982
 IR Inten    --     2.9889                 0.0012                 1.0602

                    10                     11                     12
                     A                      A                      A
 Frequencies --   503.3579               573.4082               600.4566
 Red. masses --     3.0622                 5.5703                 2.3821
 Frc consts  --     0.4571                 1.0791                 0.5060
 IR Inten    --     1.7499                35.8259                10.2081

                    13                     14                     15
                     A                      A                      A
 Frequencies --   645.7478               684.9182               723.7596
 Red. masses --     7.2000                 4.5582                 4.2834
 Frc consts  --     1.7689                 1.2599                 1.3220
 IR Inten    --     0.5342                 0.4960                 2.1064

                    16                     17                     18
                     A                      A                      A
 Frequencies --   831.4618               848.7036               854.5502
 Red. masses --     1.2840                 6.5506                 1.4810
 Frc consts  --     0.5230                 2.7800                 0.6372
 IR Inten    --     9.0427                12.5240                47.1045

                    19                     20                     21
                     A                      A                      A
 Frequencies --   955.1771               968.6078               990.1551
 Red. masses --     1.2878                 2.2265                 1.2997
 Frc consts  --     0.6922                 1.2307                 0.7508
 IR Inten    --     0.0238                34.8062                 0.7227

                    22                     23                     24
                     A                      A                      A
 Frequencies --  1033.0545              1057.5821              1097.7605
 Red. masses --     2.6581                 1.8435                 2.4066
 Frc consts  --     1.6714                 1.2148                 1.7087
 IR Inten    --     3.4770                 1.5230                 1.1575

                    25                     26                     27
                     A                      A                      A
 Frequencies --  1130.4301              1188.5612              1286.9005
 Red. masses --     1.2638                 1.1572                 3.0186
 Frc consts  --     0.9515                 0.9632                 2.9454
 IR Inten    --     8.6127                47.7290                 3.7716

                    28                     29                     30
                     A                      A                      A
 Frequencies --  1293.4683              1328.2911              1361.6802
 Red. masses --     5.1691                 1.3088                10.6118
 Frc consts  --     5.0954                 1.3605                11.5928
 IR Inten    --   307.9310                10.0364                 3.0676

                    31                     32                     33
                     A                      A                      A
 Frequencies --  1413.0199              1455.9082              1499.9828
 Red. masses --     1.3390                 3.2423                 1.0568
 Frc consts  --     1.5752                 4.0492                 1.4009
 IR Inten    --    39.4011                25.1782                 9.7454

                    34                     35                     36
                     A                      A                      A
 Frequencies --  1509.3826              1557.3744              1640.7623
 Red. masses --     1.0479                 2.7001                 7.1575
 Frc consts  --     1.4067                 3.8584                11.3529
 IR Inten    --     9.6724                29.4653                16.9821

                    37                     38                     39
                     A                      A                      A
 Frequencies --  1662.2597              1778.0090              3053.6158
 Red. masses --     5.9380                10.7138                 1.0385
 Frc consts  --     9.6668                19.9554                 5.7052
 IR Inten    --   140.9419               161.3325                 2.8776

                    40                     41                     42
                     A                      A                      A
 Frequencies --  3112.9388              3170.5794              3210.5316
 Red. masses --     1.1001                 1.1011                 1.0879
 Frc consts  --     6.2807                 6.5215                 6.6068
 IR Inten    --     9.8959                10.7552                 6.5571

                    43                     44                     45
                     A                      A                      A
 Frequencies --  3219.7109              3228.2789              3233.0776
 Red. masses --     1.0889                 1.0945                 1.0942
 Frc consts  --     6.6508                 6.7206                 6.7388
 IR Inten    --     1.1237                 4.8778                 3.8114

 - Thermochemistry -
 -------------------
 Temperature   298.150 Kelvin.  Pressure   1.00000 Atm.
 Atom     1 has atomic number  6 and mass  12.00000

 Molecular mass:   138.04809 amu.
 Principal axes and moments of inertia in atomic units:
                           1         2         3
     Eigenvalues --   492.155472347.808462828.72132
           X            0.99966   0.02615   0.00000
           Y           -0.02615   0.99966  -0.00000
           Z           -0.00000   0.00000   1.00000
 This molecule is an asymmetric top.
 Rotational symmetry number  1.
 Warning -- assumption of classical behavior for rotation
           may cause significant error
 Rotational temperatures (Kelvin)      0.17599     0.03689     0.03062
 Rotational constants (GHZ):           3.66701     0.76869     0.63801
 Zero-point vibrational energy     341975.3 (Joules/Mol)
                                   81.73405 (Kcal/Mol)
 Warning -- explicit consideration of  12 degrees of freedom as
           vibrations may cause significant error
 Vibrational temperatures:    103.04   157.38   240.64   282.13   426.12
          (Kelvin)            484.62   571.04   612.73   676.56   724.22
                              825.01   863.92   929.09   985.44  1041.33
                             1196.29  1221.09  1229.51  1374.29  1393.61
                             1424.61  1486.33  1521.62  1579.43  1626.43
                             1710.07  1851.56  1861.01  1911.11  1959.15
                             2033.02  2094.72  2158.14  2171.66  2240.71
                             2360.69  2391.62  2558.16  4393.47  4478.82
                             4561.75  4619.23  4632.44  4644.77  4651.67

 Zero-point correction=                           0.130252 (Hartree/Particle)
 Thermal correction to Energy=                    0.138858
 Thermal correction to Enthalpy=                  0.139802
 Thermal correction to Gibbs Free Energy=         0.096358
 Sum of electronic and zero-point Energies=           -483.999604
 Sum of electronic and thermal Energies=              -483.990998
 Sum of electronic and thermal Enthalpies=            -483.990054
 Sum of electronic and thermal Free Energies=         -484.033498

                     E (Thermal)             CV                S
                      KCal/Mol        Cal/Mol-Kelvin    Cal/Mol-Kelvin
 Total                   87.135             32.483             91.436
 Electronic               0.000              0.000              0.000
 Translational            0.889              2.981             40.679
 Rotational               0.889              2.981             29.570
 Vibrational             85.357             26.521             21.186
 Vibration     1          0.598              1.968              4.109
 Vibration     2          0.606              1.942              3.280
 Vibration     3          0.624              1.883              2.466
 Vibration     4          0.636              1.845              2.169
 Vibration     5          0.690              1.681              1.438
 Vibration     6          0.718              1.602              1.227
 Vibration     7          0.763              1.477              0.974
 Vibration     8          0.788              1.414              0.872
 Vibration     9          0.827              1.316              0.737
 Vibration    10          0.859              1.243              0.650
 Vibration    11          0.930              1.089              0.498
 Vibration    12          0.959              1.031              0.449

 Optimization completed.
    -- Stationary point found.
 Normal termination of Gaussian 09 at Mon Oct  4 07:49:41 2021.
 Gaussian 09:  AM64L-G09RevA.02 11-Jun-2009

 ----------------------------------------------------------------------
 #p TD(NStates=10, Root=1) b3lyp/6-31G* volume pop=NPA density=current
 Geom=AllCheck Guess=Read
 ----------------------------------------------------------------------

 CC(=O)c1ccc(cc1)F_conf_0
 ------------------------
 Redundant internal coordinates taken from checkpoint file:
 C8H7FO_55da_conf_0.chk
 Charge =  0 Multiplicity = 1

                         Standard orientation:
 ---------------------------------------------------------------------
 Center     Atomic      Atomic             Coordinates (Angstroms)
 Number     Number       Type             X           Y           Z
 ---------------------------------------------------------------------
      1          6           0        2.977183    1.086128    0.000062
      2          6           0        2.137133   -0.181177   -0.000016
      3          8           0        2.672182   -1.279771   -0.000103
      4          6           0        0.644344   -0.060337    0.000021
      5          6           0       -0.115907   -1.242122    0.000043
      6          6           0       -1.504588   -1.199051    0.000063
      7          6           0       -2.130676    0.045310    0.000053
      8          6           0       -1.413264    1.236708   -0.000020
      9          6           0       -0.021263    1.175484   -0.000027
     10          9           0       -3.475844    0.097005   -0.000056
     11          1           0        4.031463    0.804731    0.000075
     12          1           0        2.766623    1.700388    0.883777
     13          1           0        2.766663    1.700411   -0.883652
     14          1           0        0.411884   -2.189997    0.000062
     15          1           0       -2.106992   -2.101541    0.000094
     16          1           0       -1.944724    2.182500   -0.000078
     17          1           0        0.542461    2.102983   -0.000031
 ---------------------------------------------------------------------

 SCF Done:  E(RB3LYP) =  -484.129855735     A.U. after    1 cycles

 Excitation energies and oscillator strengths:

 Excited State   1:      Singlet-A      3.7917 eV  326.99 nm  f=0.0000  <S**2>=0.000
      36 -> 37         0.69540
      36 -> 39        -0.12353
 This state for optimization and/or second-order correction.
 Total Energy, E(TD-HF/TD-KS) =  -483.990513567
 Copying the excited state density for this state as the 1-particle RhoCI density.

 Excited State   2:      Singlet-A      4.9754 eV  249.19 nm  f=0.0065  <S**2>=0.000
      34 -> 37         0.58958
      35 -> 37         0.12717
      35 -> 38         0.36340

 Excited State   3:      Singlet-A      5.2019 eV  238.34 nm  f=0.2493  <S**2>=0.000
      34 -> 37        -0.10604
      34 -> 38        -0.14489
      35 -> 37         0.67319

 Excited State   4:      Singlet-A      5.4118 eV  229.10 nm  f=0.0000  <S**2>=0.000
      36 -> 38         0.70644

 Excited State   5:      Singlet-A      6.1811 eV  200.59 nm  f=0.1418  <S**2>=0.000
      34 -> 37        -0.35959
      34 -> 39         0.23194
      35 -> 38         0.55668

 Excited State   6:      Singlet-A      6.6672 eV  185.96 nm  f=0.0009  <S**2>=0.000
      36 -> 37         0.12499
      36 -> 39         0.68293

 Excited State   7:      Singlet-A      6.7924 eV  182.53 nm  f=0.3230  <S**2>=0.000
      34 -> 38         0.63237
      35 -> 37         0.11593
      35 -> 39        -0.26331

 Excited State   8:      Singlet-A      6.9175 eV  179.23 nm  f=0.0000  <S**2>=0.000
      32 -> 37         0.69236

 Excited State   9:      Singlet-A      7.3834 eV  167.92 nm  f=0.0865  <S**2>=0.000
      33 -> 37         0.53835
      34 -> 38        -0.11178
      35 -> 39        -0.41858

 Excited State  10:      Singlet-A      7.6485 eV  162.10 nm  f=0.0000  <S**2>=0.000
      30 -> 37         0.69620

 The electronic state is 1-A.
 Alpha  occ. eigenvalues --  -24.71667 -19.13727 -10.28795 -10.27947 -10.21669
 Alpha  occ. eigenvalues --  -10.20934 -10.20902 -10.20740 -10.20683 -10.19293
 Alpha  occ. eigenvalues --   -1.22903  -1.03697  -0.87472  -0.77953  -0.76852
 Alpha  occ. eigenvalues --   -0.73508  -0.63920  -0.63301  -0.56289  -0.54907
 Alpha  occ. eigenvalues --   -0.50148  -0.48259  -0.47024  -0.46381  -0.44600
 Alpha  occ. eigenvalues --   -0.44370  -0.42870  -0.41665  -0.39718  -0.38280
 Alpha  occ. eigenvalues --   -0.38011  -0.35369  -0.35092  -0.27235  -0.25576
 Alpha  occ. eigenvalues --   -0.25123
 Alpha virt. eigenvalues --   -0.05601  -0.02038   0.03968   0.07849   0.10992
 Alpha virt. eigenvalues --    0.13674   0.14970   0.15433   0.16769   0.17112
 Alpha virt. eigenvalues --    0.17477   0.19142   0.22157   0.24535   0.27952

 Mulliken atomic charges:
              1
     1  C   -0.515260
     2  C    0.311317
     3  O   -0.304399
     4  C    0.109978
     5  C   -0.194163
     6  C   -0.195860
     7  C    0.359566
     8  C   -0.197227
     9  C   -0.207493
    10  F   -0.301389
    11  H    0.185866
    12  H    0.196792
    13  H    0.196790
    14  H    0.145341
    15  H    0.144106
    16  H    0.142841
    17  H    0.123196
 Sum of Mulliken atomic charges =  -0.00000

 Dipole moment (field-independent basis, Debye):
    X=              2.4933    Y=              1.6441    Z=              0.0002  Tot=              2.9866
 Quadrupole moment (field-independent basis, Debye-Ang):
   XX=            -56.6025   YY=            -51.8146   ZZ=            -58.7307
   XY=              5.8046   XZ=              0.0002   YZ=             -0.0003

 Summary of Natural Population Analysis:

                                       Natural Population
                Natural  -----------------------------------------------
    Atom  No    Charge         Core      Valence    Rydberg      Total
 -----------------------------------------------------------------------
      C    1   -0.70857      1.99933     4.70246    0.00678     6.70857
      C    2    0.36847      1.99929     3.59973    0.03251     5.63153
      O    3   -0.25352      1.99981     6.23557    0.01813     8.25352
      C    4   -0.16804      1.99889     4.15448    0.01467     6.16804
      C    5   -0.22032      1.99906     4.20691    0.01435     6.22032
      C    6   -0.29527      1.99900     4.28176    0.01451     6.29527
      C    7    0.38966      1.99846     3.58464    0.02724     5.61034
      C    8   -0.29536      1.99900     4.28149    0.01487     6.29536
      C    9   -0.23442      1.99905     4.22237    0.01301     6.23442
      F   10   -0.33770      1.99994     7.33229    0.00546     9.33770
      H   11    0.25890      0.00000     0.73998    0.00112     0.74110
      H   12    0.26070      0.00000     0.73804    0.00126     0.73930
      H   13    0.26070      0.00000     0.73804    0.00126     0.73930
      H   14    0.24252      0.00000     0.75671    0.00077     0.75748
      H   15    0.25050      0.00000     0.74836    0.00114     0.74950
      H   16    0.24974      0.00000     0.74912    0.00114     0.75026
      H   17    0.23202      0.00000     0.76707    0.00092     0.76798
 =======================================================================
   * Total *    0.00000     19.99183    51.83901    0.16916    72.00000

 Normal termination of Gaussian 09 at Mon Oct  4 09:50:48 2021.
