 Gaussian 09, Revision A.02,

 -----------------------------------
 #p opt b3lyp/6-31G* scf=(xqc,tight)
 -----------------------------------

 ---------------------------
 COc1ccc(cc1)C(F)(F)F_conf_0
 ---------------------------
 Symbolic Z-matrix:
 Charge =  0 Multiplicity = 1

 SCF Done:  E(RB3LYP) =  -683.808773155     A.U. after   14 cycles
 SCF Done:  E(RB3LYP) =  -683.810137233     A.U. after   12 cycles
 SCF Done:  E(RB3LYP) =  -683.810323824     A.U. after   11 cycles
 SCF Done:  E(RB3LYP) =  -683.810335573     A.U. after    9 cycles
 Optimization completed.
    -- Stationary point found.
 Normal termination of Gaussian 09 at Wed Sep 29 00:05:15 2021.

 ----------------------------------------------------------------------
 #p freq b3lyp/6-31G* volume NMR pop=NPA density=current Geom=AllCheck
 Guess=Read
 ----------------------------------------------------------------------

 COc1ccc(cc1)C(F)(F)F_conf_0
 ---------------------------
 Redundant internal coordinates taken from checkpoint file:
 C8H7F3O_898c_conf_0.chk
 Charge =  0 Multiplicity = 1

 SCF Done:  E(RB3LYP) =  -683.810335573     A.U. after    1 cycles

  1  C    Isotropic =   137.1740   Anisotropy =    65.5940

  2  O    Isotropic =   230.5663   Anisotropy =    91.4086

  3  C    Isotropic =    36.9229   Anisotropy =   130.8795

  4  C    Isotropic =    87.2539   Anisotropy =   143.4208

  5  C    Isotropic =    68.7736   Anisotropy =   165.9582

  6  C    Isotropic =    71.1480   Anisotropy =   140.0652

  7  C    Isotropic =    67.5204   Anisotropy =   167.4130

  8  C    Isotropic =    77.7170   Anisotropy =   137.6679

  9  C    Isotropic =    62.7137   Anisotropy =    11.0871

 10  F    Isotropic =   283.6967   Anisotropy =   117.1727

 11  F    Isotropic =   254.6063   Anisotropy =   129.9437

 12  F    Isotropic =   254.5802   Anisotropy =   129.9569

 13  H    Isotropic =    28.2335   Anisotropy =     7.9579

 14  H    Isotropic =    28.6136   Anisotropy =     7.9539

 15  H    Isotropic =    28.6103   Anisotropy =     7.9596

 16  H    Isotropic =    25.8056   Anisotropy =     7.2365

 17  H    Isotropic =    24.8222   Anisotropy =     8.1722

 18  H    Isotropic =    24.7579   Anisotropy =     7.6323

 19  H    Isotropic =    25.4081   Anisotropy =     5.7425

  Exact polarizability: 122.679   3.031  87.839   0.000  -0.013  43.607
 Approx polarizability: 175.906  -0.158 150.001  -0.013  -0.021  65.564

 ******    1 imaginary frequencies (negative Signs) ******

                     1                      2                      3
                     A                      A                      A
 Frequencies --   -16.5042                68.7411               118.1923
 Red. masses --     6.1702                 4.0522                 5.2009
 Frc consts  --     0.0010                 0.0113                 0.0428
 IR Inten    --     0.0888                 0.5589                 4.2782

                     4                      5                      6
                     A                      A                      A
 Frequencies --   157.8930               214.6806               248.2033
 Red. masses --     6.4379                 1.9413                 4.3958
 Frc consts  --     0.0946                 0.0527                 0.1596
 IR Inten    --     0.5068                 0.3988                 4.1986

                     7                      8                      9
                     A                      A                      A
 Frequencies --   265.4740               311.8793               399.0068
 Red. masses --     1.8037                 8.1412                 8.3977
 Frc consts  --     0.0749                 0.4666                 0.7877
 IR Inten    --     0.8957                 0.4325                 1.7725

                    10                     11                     12
                     A                      A                      A
 Frequencies --   401.5215               430.6497               488.2167
 Red. masses --     5.7556                 3.7380                 4.4438
 Frc consts  --     0.5467                 0.4085                 0.6241
 IR Inten    --     0.0059                 0.0319                 0.5932

                    13                     14                     15
                     A                      A                      A
 Frequencies --   512.4550               575.6760               595.7256
 Red. masses --     4.7527                11.6048                 3.5090
 Frc consts  --     0.7354                 2.2659                 0.7337
 IR Inten    --     0.8028                 0.9934                 8.2809

                    16                     17                     18
                     A                      A                      A
 Frequencies --   606.6938               650.0830               738.2365
 Red. masses --     6.4717                 7.1971                 4.9084
 Frc consts  --     1.4035                 1.7920                 1.5761
 IR Inten    --    36.9284                 3.0310                 0.9121

                    19                     20                     21
                     A                      A                      A
 Frequencies --   744.2493               828.6112               830.0795
 Red. masses --    10.2395                 1.2563                 6.2700
 Frc consts  --     3.3417                 0.5082                 2.5454
 IR Inten    --     0.6200                 4.0705                 2.0357

                    22                     23                     24
                     A                      A                      A
 Frequencies --   849.0877               955.5459               958.5638
 Red. masses --     1.7016                 1.2801                 1.3108
 Frc consts  --     0.7228                 0.6887                 0.7096
 IR Inten    --    57.4373                 1.0781                 0.6509

                    25                     26                     27
                     A                      A                      A
 Frequencies --  1027.7071              1070.7991              1095.3456
 Red. masses --     3.3495                 7.9099                 3.5515
 Frc consts  --     2.0844                 5.3437                 2.5105
 IR Inten    --    13.1330                94.1859                62.6028

                    28                     29                     30
                     A                      A                      A
 Frequencies --  1142.3589              1177.7720              1183.7500
 Red. masses --     1.5039                12.5744                 1.2721
 Frc consts  --     1.1563                10.2769                 1.0502
 IR Inten    --    50.1254               261.9956                 0.0522

                    31                     32                     33
                     A                      A                      A
 Frequencies --  1203.3860              1216.6140              1218.2789
 Red. masses --     2.3113                 1.5860                 1.3999
 Frc consts  --     1.9721                 1.3831                 1.2242
 IR Inten    --   157.5272                43.2498                23.3608

                    34                     35                     36
                     A                      A                      A
 Frequencies --  1305.3264              1342.5676              1351.2244
 Red. masses --     5.0601                 1.9957                 2.1358
 Frc consts  --     5.0798                 2.1195                 2.2976
 IR Inten    --   318.7589               168.8976               117.8427

                    37                     38                     39
                     A                      A                      A
 Frequencies --  1376.2233              1467.2928              1498.8347
 Red. masses --     8.4912                 3.1588                 1.1971
 Frc consts  --     9.4754                 4.0068                 1.5845
 IR Inten    --   108.1735                 8.8886                 6.3693

                    40                     41                     42
                     A                      A                      A
 Frequencies --  1520.7409              1533.0025              1572.0638
 Red. masses --     1.0480                 1.0595                 2.6126
 Frc consts  --     1.4279                 1.4670                 3.8042
 IR Inten    --     6.0371                29.2386                41.6304

                    43                     44                     45
                     A                      A                      A
 Frequencies --  1638.2496              1678.5705              3031.0452
 Red. masses --     6.6891                 5.7315                 1.0345
 Frc consts  --    10.5774                 9.5147                 5.5995
 IR Inten    --    24.5798               115.8447                48.5752

                    46                     47                     48
                     A                      A                      A
 Frequencies --  3092.3352              3164.1224              3205.4211
 Red. masses --     1.1070                 1.1002                 1.0885
 Frc consts  --     6.2370                 6.4899                 6.5892
 IR Inten    --    39.6394                22.4383                 4.7249

                    49                     50                     51
                     A                      A                      A
 Frequencies --  3223.1563              3224.3517              3238.1797
 Red. masses --     1.0894                 1.0926                 1.0933
 Frc consts  --     6.6680                 6.6924                 6.7544
 IR Inten    --     5.7000                 3.3859                 6.3471

 - Thermochemistry -
 -------------------
 Temperature   298.150 Kelvin.  Pressure   1.00000 Atm.
 Atom     1 has atomic number  6 and mass  12.00000

 Molecular mass:   176.04490 amu.
 Principal axes and moments of inertia in atomic units:
                           1         2         3
     Eigenvalues --   693.228043956.262134318.99899
           X            0.99991   0.01376   0.00003
           Y           -0.01376   0.99991  -0.00002
           Z           -0.00003   0.00002   1.00000
 This molecule is an asymmetric top.
 Rotational symmetry number  1.
 Warning -- assumption of classical behavior for rotation
           may cause significant error
 Rotational temperatures (Kelvin)      0.12494     0.02189     0.02005
 Rotational constants (GHZ):           2.60339     0.45617     0.41786
    1 imaginary frequencies ignored.
 Zero-point vibrational energy     363354.8 (Joules/Mol)
                                   86.84389 (Kcal/Mol)
 Warning -- explicit consideration of  15 degrees of freedom as
           vibrations may cause significant error
 Vibrational temperatures:     98.90   170.05   227.17   308.88   357.11
          (Kelvin)            381.96   448.72   574.08   577.70   619.61
                              702.43   737.31   828.27   857.12   872.90
                              935.32  1062.16  1070.81  1192.19  1194.30
                             1221.65  1374.82  1379.16  1478.64  1540.64
                             1575.96  1643.60  1694.55  1703.15  1731.40
                             1750.43  1752.83  1878.07  1931.65  1944.11
                             1980.08  2111.10  2156.49  2188.00  2205.65
                             2261.85  2357.07  2415.09  4360.99  4449.18
                             4552.46  4611.88  4637.40  4639.12  4659.01

 Zero-point correction=                           0.138395 (Hartree/Particle)
 Thermal correction to Energy=                    0.147970
 Thermal correction to Enthalpy=                  0.148914
 Thermal correction to Gibbs Free Energy=         0.102993
 Sum of electronic and zero-point Energies=           -683.671941
 Sum of electronic and thermal Energies=              -683.662366
 Sum of electronic and thermal Enthalpies=            -683.661422
 Sum of electronic and thermal Free Energies=         -683.707342

                     E (Thermal)             CV                S
                      KCal/Mol        Cal/Mol-Kelvin    Cal/Mol-Kelvin
 Total                   92.852             36.943             96.648
 Electronic               0.000              0.000              0.000
 Translational            0.889              2.981             41.404
 Rotational               0.889              2.981             30.850
 Vibrational             91.075             30.981             24.394
 Vibration     1          0.598              1.969              4.189
 Vibration     2          0.608              1.934              3.130
 Vibration     3          0.621              1.894              2.575
 Vibration     4          0.645              1.819              2.004
 Vibration     5          0.662              1.766              1.743
 Vibration     6          0.671              1.736              1.625
 Vibration     7          0.700              1.651              1.352
 Vibration     8          0.765              1.472              0.966
 Vibration     9          0.767              1.467              0.957
 Vibration    10          0.792              1.403              0.857
 Vibration    11          0.844              1.276              0.688
 Vibration    12          0.868              1.222              0.628
 Vibration    13          0.932              1.084              0.493
 Vibration    14          0.953              1.041              0.457
 Vibration    15          0.965              1.018              0.438

 Normal termination of Gaussian 09 at Wed Sep 29 00:33:00 2021.
 Gaussian 09:  AM64L-G09RevA.02 11-Jun-2009

 ----------------------------------------------------------------------
 #p TD(NStates=10, Root=1) b3lyp/6-31G* volume pop=NPA density=current
 Geom=AllCheck Guess=Read
 ----------------------------------------------------------------------

 COc1ccc(cc1)C(F)(F)F_conf_0
 ---------------------------
 Redundant internal coordinates taken from checkpoint file:
 C8H7F3O_898c_conf_0.chk
 Charge =  0 Multiplicity = 1

                         Standard orientation:
 ---------------------------------------------------------------------
 Center     Atomic      Atomic             Coordinates (Angstroms)
 Number     Number       Type             X           Y           Z
 ---------------------------------------------------------------------
      1          6           0        4.216698    0.590344    0.001552
      2          8           0        3.330736   -0.520564   -0.000897
      3          6           0        1.991352   -0.281220   -0.000672
      4          6           0        1.409785    0.992225   -0.000985
      5          6           0        0.018642    1.115755   -0.000755
      6          6           0       -0.795191   -0.014073   -0.000246
      7          6           0       -0.207234   -1.287845   -0.000034
      8          6           0        1.171438   -1.422748   -0.000208
      9          6           0       -2.291015    0.098620    0.000194
     10          9           0       -2.711247    1.382944   -0.000558
     11          9           0       -2.840229   -0.502724   -1.083314
     12          9           0       -2.839483   -0.501195    1.084936
     13          1           0        5.223025    0.168574    0.003279
     14          1           0        4.080353    1.210715    0.896686
     15          1           0        4.083994    1.211840   -0.893363
     16          1           0        2.021251    1.886715   -0.001524
     17          1           0       -0.430284    2.102933   -0.000970
     18          1           0       -0.835401   -2.173770    0.000365
     19          1           0        1.642950   -2.400075    0.000050
 ---------------------------------------------------------------------

 SCF Done:  E(RB3LYP) =  -683.810335573     A.U. after    1 cycles

 Excitation energies and oscillator strengths:

 Excited State   1:      Singlet-A      5.1754 eV  239.56 nm  f=0.0154  <S**2>=0.000
      44 -> 46         0.10739
      44 -> 47        -0.33753
      45 -> 46         0.59053
      45 -> 47         0.15658
 This state for optimization and/or second-order correction.
 Total Energy, E(TD-HF/TD-KS) =  -683.620141355
 Copying the excited state density for this state as the 1-particle RhoCI density.

 Excited State   2:      Singlet-A      5.7567 eV  215.37 nm  f=0.1919  <S**2>=0.000
      44 -> 46         0.26465
      45 -> 46        -0.17927
      45 -> 47         0.62389

 Excited State   3:      Singlet-A      6.7354 eV  184.08 nm  f=0.2303  <S**2>=0.000
      43 -> 46         0.22271
      44 -> 46        -0.11860
      44 -> 47         0.56340
      45 -> 46         0.32212

 Excited State   4:      Singlet-A      7.0046 eV  177.00 nm  f=0.6531  <S**2>=0.000
      43 -> 47        -0.10610
      44 -> 46         0.62326
      44 -> 47         0.14563
      45 -> 47        -0.26008

 Excited State   5:      Singlet-A      7.6313 eV  162.47 nm  f=0.0001  <S**2>=0.000
      42 -> 46        -0.24758
      42 -> 47         0.63210
      45 -> 48         0.14322

 Excited State   6:      Singlet-A      7.6609 eV  161.84 nm  f=0.0001  <S**2>=0.000
      40 -> 46        -0.11413
      42 -> 46         0.59547
      42 -> 47         0.16183
      45 -> 48         0.31030

 Excited State   7:      Singlet-A      7.6672 eV  161.71 nm  f=0.0014  <S**2>=0.000
      42 -> 46        -0.24984
      42 -> 47        -0.24040
      45 -> 48         0.59281
      45 -> 49        -0.13592

 Excited State   8:      Singlet-A      8.0649 eV  153.73 nm  f=0.1625  <S**2>=0.000
      43 -> 46         0.64329
      43 -> 47         0.16426
      44 -> 47        -0.19776
      45 -> 46        -0.10424

 Excited State   9:      Singlet-A      8.0998 eV  153.07 nm  f=0.0102  <S**2>=0.000
      45 -> 48         0.16556
      45 -> 49         0.67677

 Excited State  10:      Singlet-A      8.1366 eV  152.38 nm  f=0.0405  <S**2>=0.000
      43 -> 46        -0.16126
      43 -> 47         0.66576

 The electronic state is 1-A.
 Alpha  occ. eigenvalues --  -24.71967 -24.71196 -24.71195 -19.19118 -10.42447
 Alpha  occ. eigenvalues --  -10.26308 -10.25145 -10.20838 -10.20735 -10.20665
 Alpha  occ. eigenvalues --  -10.20144 -10.19822  -1.29161  -1.20710  -1.20076
 Alpha  occ. eigenvalues --   -1.07741  -0.86947  -0.78490  -0.76310  -0.72505
 Alpha  occ. eigenvalues --   -0.67695  -0.62865  -0.60991  -0.57019  -0.56950
 Alpha  occ. eigenvalues --   -0.56265  -0.53703  -0.49303  -0.47964  -0.46566
 Alpha  occ. eigenvalues --   -0.44763  -0.44627  -0.44139  -0.43184  -0.42584
 Alpha  occ. eigenvalues --   -0.41203  -0.40402  -0.38851  -0.38762  -0.37431
 Alpha  occ. eigenvalues --   -0.36189  -0.33844  -0.33232  -0.26517  -0.23471
 Alpha virt. eigenvalues --   -0.01373  -0.01218   0.08481   0.09837   0.12525
 Alpha virt. eigenvalues --    0.13458   0.14055   0.14418   0.15020   0.15790
 Alpha virt. eigenvalues --    0.16834   0.20462   0.22412   0.22863   0.24181

 Mulliken atomic charges:
              1
     1  C   -0.231295
     2  O   -0.443128
     3  C    0.359854
     4  C   -0.200578
     5  C   -0.198099
     6  C    0.012491
     7  C   -0.187067
     8  C   -0.190845
     9  C    0.785607
    10  F   -0.271872
    11  F   -0.267822
    12  F   -0.267814
    13  H    0.183998
    14  H    0.176186
    15  H    0.176183
    16  H    0.132481
    17  H    0.147459
    18  H    0.145284
    19  H    0.138976
 Sum of Mulliken atomic charges =  -0.00000

 Dipole moment (field-independent basis, Debye):
    X=              4.6227    Y=              1.2467    Z=              0.0024  Tot=              4.7879
 Quadrupole moment (field-independent basis, Debye-Ang):
   XX=            -57.6092   YY=            -63.2884   ZZ=            -69.3193
   XY=              5.5240   XZ=              0.0123   YZ=             -0.0023

 Summary of Natural Population Analysis:

                                       Natural Population
                Natural  -----------------------------------------------
    Atom  No    Charge         Core      Valence    Rydberg      Total
 -----------------------------------------------------------------------
      C    1   -0.32697      1.99942     4.31353    0.01402     6.32697
      O    2   -0.42211      1.99975     6.41056    0.01180     8.42211
      C    3    0.32359      1.99883     3.65432    0.02326     5.67641
      C    4   -0.32115      1.99906     4.30485    0.01725     6.32115
      C    5   -0.25521      1.99909     4.23620    0.01992     6.25521
      C    6   -0.10298      1.99887     4.08734    0.01677     6.10298
      C    7   -0.26168      1.99909     4.24309    0.01950     6.26168
      C    8   -0.29587      1.99907     4.27645    0.02035     6.29587
      C    9    1.11369      1.99905     2.81757    0.06969     4.88631
      F   10   -0.36386      1.99993     7.35786    0.00607     9.36386
      F   11   -0.36162      1.99993     7.35549    0.00619     9.36162
      F   12   -0.36161      1.99993     7.35549    0.00619     9.36161
      H   13    0.23514      0.00000     0.76435    0.00050     0.76486
      H   14    0.21957      0.00000     0.77853    0.00191     0.78043
      H   15    0.21956      0.00000     0.77853    0.00190     0.78044
      H   16    0.23176      0.00000     0.76730    0.00094     0.76824
      H   17    0.24554      0.00000     0.75306    0.00140     0.75446
      H   18    0.24207      0.00000     0.75668    0.00125     0.75793
      H   19    0.24212      0.00000     0.75670    0.00118     0.75788
 =======================================================================
   * Total *    0.00000     23.99201    65.76789    0.24010    90.00000

 Normal termination of Gaussian 09 at Wed Sep 29 02:49:34 2021.
