 Gaussian 09, Revision A.02,

 -----------------------------------
 #p opt b3lyp/6-31G* scf=(xqc,tight)
 -----------------------------------

 ----------------------
 COc1ccc(cc1)C#N_conf_0
 ----------------------
 Symbolic Z-matrix:
 Charge =  0 Multiplicity = 1

 SCF Done:  E(RB3LYP) =  -439.015148848     A.U. after   15 cycles
 SCF Done:  E(RB3LYP) =  -439.016510993     A.U. after   13 cycles
 SCF Done:  E(RB3LYP) =  -439.016714305     A.U. after   12 cycles
 SCF Done:  E(RB3LYP) =  -439.016780508     A.U. after   11 cycles
 SCF Done:  E(RB3LYP) =  -439.016816923     A.U. after   11 cycles
 SCF Done:  E(RB3LYP) =  -439.016825771     A.U. after   10 cycles
 SCF Done:  E(RB3LYP) =  -439.016826199     A.U. after   17 cycles
 Optimization completed.
    -- Stationary point found.
 Normal termination of Gaussian 09 at Wed Sep 29 00:18:11 2021.

 ----------------------------------------------------------------------
 #p freq b3lyp/6-31G* volume NMR pop=NPA density=current Geom=AllCheck
 Guess=Read
 ----------------------------------------------------------------------

 COc1ccc(cc1)C#N_conf_0
 ----------------------
 Redundant internal coordinates taken from checkpoint file:
 C8H7NO_b4eb_conf_0.chk
 Charge =  0 Multiplicity = 1

 SCF Done:  E(RB3LYP) =  -439.016826199     A.U. after    1 cycles

  1  C    Isotropic =   137.0921   Anisotropy =    66.0005

  2  O    Isotropic =   225.6867   Anisotropy =    99.3739

  3  C    Isotropic =    36.5721   Anisotropy =   133.0816

  4  C    Isotropic =    77.7052   Anisotropy =   138.4951

  5  C    Isotropic =    61.9262   Anisotropy =   167.9684

  6  C    Isotropic =    89.0473   Anisotropy =   126.0257

  7  C    Isotropic =    61.1192   Anisotropy =   169.1432

  8  C    Isotropic =    85.9833   Anisotropy =   145.8412

  9  C    Isotropic =    82.1532   Anisotropy =   308.7351

 10  N    Isotropic =   -13.3678   Anisotropy =   384.7497

 11  H    Isotropic =    28.2098   Anisotropy =     7.7921

 12  H    Isotropic =    28.6193   Anisotropy =     7.8877

 13  H    Isotropic =    28.6183   Anisotropy =     7.8895

 14  H    Isotropic =    25.4829   Anisotropy =     5.6710

 15  H    Isotropic =    24.8346   Anisotropy =     5.5886

 16  H    Isotropic =    24.8136   Anisotropy =     5.9675

 17  H    Isotropic =    25.7890   Anisotropy =     7.1575

  Exact polarizability: 149.096  -0.413  83.860   0.003   0.003  38.376
 Approx polarizability: 235.857  -7.523 141.553   0.012   0.003  56.539

                     1                      2                      3
                     A                      A                      A
 Frequencies --    72.8783               127.6901               140.7969
 Red. masses --     3.9065                 5.1414                 7.1684
 Frc consts  --     0.0122                 0.0494                 0.0837
 IR Inten    --     0.0001                 9.4036                 4.4189

                     4                      5                      6
                     A                      A                      A
 Frequencies --   224.0845               258.3531               285.8929
 Red. masses --     1.3034                 3.3668                 3.1485
 Frc consts  --     0.0386                 0.1324                 0.1516
 IR Inten    --     0.2235                 3.6461                 0.0039

                     7                      8                      9
                     A                      A                      A
 Frequencies --   385.9294               421.1462               486.8125
 Red. masses --     7.8261                 3.1574                 5.0703
 Frc consts  --     0.6868                 0.3300                 0.7080
 IR Inten    --     0.6937                 0.0385                 0.1525

                    10                     11                     12
                     A                      A                      A
 Frequencies --   503.6695               562.7707               567.2797
 Red. masses --     4.9634                 6.5022                 3.0871
 Frc consts  --     0.7419                 1.2133                 0.5853
 IR Inten    --     5.1683                 0.1612                16.0171

                    13                     14                     15
                     A                      A                      A
 Frequencies --   659.1459               697.8581               726.4535
 Red. masses --     7.1821                 5.7082                 4.2661
 Frc consts  --     1.8385                 1.6379                 1.3265
 IR Inten    --     0.3979                15.9664                 0.6609

                    16                     17                     18
                     A                      A                      A
 Frequencies --   827.5822               837.3307               851.5532
 Red. masses --     1.2788                 6.0567                 1.6415
 Frc consts  --     0.5160                 2.5019                 0.7013
 IR Inten    --     6.3097                 2.1402                50.3741

                    19                     20                     21
                     A                      A                      A
 Frequencies --   954.5397               969.8805              1030.0842
 Red. masses --     1.3117                 1.2899                 2.7659
 Frc consts  --     0.7042                 0.7149                 1.7291
 IR Inten    --     0.1264                 0.0011                 0.0177

                    22                     23                     24
                     A                      A                      A
 Frequencies --  1070.9961              1145.6293              1182.9139
 Red. masses --     6.5863                 1.3106                 1.2695
 Frc consts  --     4.4511                 1.0134                 1.0466
 IR Inten    --    60.6109                 6.7550                 0.7708

                    25                     26                     27
                     A                      A                      A
 Frequencies --  1206.1034              1216.7973              1235.2116
 Red. masses --     1.2502                 1.3986                 3.0204
 Frc consts  --     1.0715                 1.2201                 2.7152
 IR Inten    --    49.5727                 4.1690                 0.5378

                    28                     29                     30
                     A                      A                      A
 Frequencies --  1309.5825              1342.6111              1355.4673
 Red. masses --     4.7958                 1.3463                 6.2482
 Frc consts  --     4.8459                 1.4299                 6.7637
 IR Inten    --   247.6970                 2.4209                77.8567

                    31                     32                     33
                     A                      A                      A
 Frequencies --  1466.6495              1498.1814              1521.4025
 Red. masses --     3.1389                 1.2025                 1.0478
 Frc consts  --     3.9781                 1.5903                 1.4290
 IR Inten    --     2.2961                19.0437                 6.6108

                    34                     35                     36
                     A                      A                      A
 Frequencies --  1531.2676              1561.8887              1616.8276
 Red. masses --     1.0613                 2.4339                 6.5276
 Frc consts  --     1.4662                 3.4983                10.0538
 IR Inten    --    43.8042                95.5312                15.4945

                    37                     38                     39
                     A                      A                      A
 Frequencies --  1669.2343              2343.5039              3034.3395
 Red. masses --     5.5944                12.6786                 1.0343
 Frc consts  --     9.1841                41.0255                 5.6110
 IR Inten    --   141.3809                59.1001                50.3303

                    40                     41                     42
                     A                      A                      A
 Frequencies --  3097.4743              3167.4119              3212.5197
 Red. masses --     1.1073                 1.1004                 1.0885
 Frc consts  --     6.2592                 6.5046                 6.6186
 IR Inten    --    36.9217                20.8589                 4.6778

                    43                     44                     45
                     A                      A                      A
 Frequencies --  3214.1157              3227.6487              3237.0016
 Red. masses --     1.0896                 1.0954                 1.0924
 Frc consts  --     6.6319                 6.7234                 6.7440
 IR Inten    --     2.2431                 3.8194                 6.6295

 - Thermochemistry -
 -------------------
 Temperature   298.150 Kelvin.  Pressure   1.00000 Atm.
 Atom     1 has atomic number  6 and mass  12.00000

 Molecular mass:   133.05276 amu.
 Principal axes and moments of inertia in atomic units:
                           1         2         3
     Eigenvalues --   373.930952563.218232925.60000
           X            0.99987   0.01640  -0.00001
           Y           -0.01640   0.99987   0.00000
           Z            0.00001  -0.00000   1.00000
 This molecule is an asymmetric top.
 Rotational symmetry number  1.
 Rotational temperatures (Kelvin)      0.23163     0.03379     0.02961
 Rotational constants (GHZ):           4.82640     0.70409     0.61688
 Zero-point vibrational energy     347255.0 (Joules/Mol)
                                   82.99595 (Kcal/Mol)
 Warning -- explicit consideration of  12 degrees of freedom as
           vibrations may cause significant error
 Vibrational temperatures:    104.86   183.72   202.58   322.41   371.71
          (Kelvin)            411.34   555.27   605.93   700.41   724.67
                              809.70   816.19   948.36  1004.06  1045.20
                             1190.70  1204.73  1225.19  1373.37  1395.44
                             1482.06  1540.92  1648.30  1701.95  1735.31
                             1750.70  1777.19  1884.19  1931.72  1950.21
                             2110.18  2155.55  2188.96  2203.15  2247.21
                             2326.25  2401.65  3371.78  4365.73  4456.57
                             4557.19  4622.09  4624.39  4643.86  4657.32

 Zero-point correction=                           0.132262 (Hartree/Particle)
 Thermal correction to Energy=                    0.140930
 Thermal correction to Enthalpy=                  0.141874
 Thermal correction to Gibbs Free Energy=         0.098446
 Sum of electronic and zero-point Energies=           -438.884564
 Sum of electronic and thermal Energies=              -438.875896
 Sum of electronic and thermal Enthalpies=            -438.874952
 Sum of electronic and thermal Free Energies=         -438.918381

                     E (Thermal)             CV                S
                      KCal/Mol        Cal/Mol-Kelvin    Cal/Mol-Kelvin
 Total                   88.435             32.344             91.403
 Electronic               0.000              0.000              0.000
 Translational            0.889              2.981             40.569
 Rotational               0.889              2.981             29.418
 Vibrational             86.658             26.382             21.416
 Vibration     1          0.599              1.967              4.074
 Vibration     2          0.611              1.926              2.981
 Vibration     3          0.615              1.912              2.793
 Vibration     4          0.649              1.804              1.926
 Vibration     5          0.667              1.749              1.673
 Vibration     6          0.684              1.700              1.498
 Vibration     7          0.755              1.500              1.016
 Vibration     8          0.784              1.424              0.888
 Vibration     9          0.843              1.279              0.692
 Vibration    10          0.859              1.242              0.649
 Vibration    11          0.919              1.112              0.518
 Vibration    12          0.923              1.102              0.509

 Optimization completed.
    -- Stationary point found.
 Normal termination of Gaussian 09 at Wed Sep 29 00:41:54 2021.
 Gaussian 09:  AM64L-G09RevA.02 11-Jun-2009

 ----------------------------------------------------------------------
 #p TD(NStates=10, Root=1) b3lyp/6-31G* volume pop=NPA density=current
 Geom=AllCheck Guess=Read
 ----------------------------------------------------------------------

 COc1ccc(cc1)C#N_conf_0
 ----------------------
 Redundant internal coordinates taken from checkpoint file:
 C8H7NO_b4eb_conf_0.chk
 Charge =  0 Multiplicity = 1

                         Standard orientation:
 ---------------------------------------------------------------------
 Center     Atomic      Atomic             Coordinates (Angstroms)
 Number     Number       Type             X           Y           Z
 ---------------------------------------------------------------------
      1          6           0       -3.478794   -0.574350    0.000318
      2          8           0       -2.575888    0.524545   -0.000281
      3          6           0       -1.242538    0.271357   -0.000212
      4          6           0       -0.410315    1.404402    0.000022
      5          6           0        0.966284    1.259424    0.000102
      6          6           0        1.545920   -0.025084   -0.000013
      7          6           0        0.711132   -1.151621   -0.000064
      8          6           0       -0.674494   -1.010830   -0.000142
      9          6           0        2.969173   -0.178234   -0.000017
     10          7           0        4.126512   -0.302683    0.000106
     11          1           0       -4.478086   -0.136694    0.000773
     12          1           0       -3.353123   -1.195655    0.895968
     13          1           0       -3.354071   -1.195794   -0.895395
     14          1           0       -0.872589    2.386058    0.000142
     15          1           0        1.606502    2.135737    0.000246
     16          1           0        1.151313   -2.143742   -0.000073
     17          1           0       -1.296633   -1.897872   -0.000111
 ---------------------------------------------------------------------

 SCF Done:  E(RB3LYP) =  -439.016826199     A.U. after    1 cycles

 Excitation energies and oscillator strengths:

 Excited State   1:      Singlet-A      4.9982 eV  248.06 nm  f=0.0121  <S**2>=0.000
      34 -> 36         0.38093
      35 -> 36         0.10428
      35 -> 37         0.58359
 This state for optimization and/or second-order correction.
 Total Energy, E(TD-HF/TD-KS) =  -438.833146382
 Copying the excited state density for this state as the 1-particle RhoCI density.

 Excited State   2:      Singlet-A      5.2594 eV  235.74 nm  f=0.3807  <S**2>=0.000
      34 -> 37        -0.17420
      35 -> 36         0.67108

 Excited State   3:      Singlet-A      6.3483 eV  195.30 nm  f=0.2367  <S**2>=0.000
      29 -> 37        -0.11093
      33 -> 37        -0.10112
      34 -> 36         0.57205
      35 -> 37        -0.37328

 Excited State   4:      Singlet-A      6.3980 eV  193.78 nm  f=0.0000  <S**2>=0.000
      32 -> 36         0.50822
      33 -> 38         0.12622
      35 -> 38        -0.46399

 Excited State   5:      Singlet-A      6.5084 eV  190.50 nm  f=0.0000  <S**2>=0.000
      32 -> 36         0.47692
      33 -> 38        -0.10209
      35 -> 38         0.50591

 Excited State   6:      Singlet-A      6.8499 eV  181.00 nm  f=0.2649  <S**2>=0.000
      29 -> 36        -0.10872
      32 -> 38         0.16264
      33 -> 36         0.47805
      34 -> 37        -0.46221
      35 -> 36        -0.11776

 Excited State   7:      Singlet-A      7.0103 eV  176.86 nm  f=0.3263  <S**2>=0.000
      32 -> 38         0.10463
      33 -> 36         0.46855
      34 -> 37         0.48357
      35 -> 36         0.11591

 Excited State   8:      Singlet-A      7.2776 eV  170.36 nm  f=0.0002  <S**2>=0.000
      31 -> 36        -0.19108
      31 -> 37        -0.11540
      32 -> 37         0.66032

 Excited State   9:      Singlet-A      7.3076 eV  169.67 nm  f=0.0000  <S**2>=0.000
      31 -> 36         0.66633
      32 -> 37         0.19307

 Excited State  10:      Singlet-A      7.3241 eV  169.28 nm  f=0.0160  <S**2>=0.000
      33 -> 37         0.69482

 The electronic state is 1-A.
 Alpha  occ. eigenvalues --  -19.20036 -14.32723 -10.27363 -10.25820 -10.23155
 Alpha  occ. eigenvalues --  -10.22160 -10.22042 -10.21827 -10.21118 -10.20691
 Alpha  occ. eigenvalues --   -1.08689  -0.89958  -0.87245  -0.78671  -0.77222
 Alpha  occ. eigenvalues --   -0.72481  -0.63952  -0.62910  -0.56581  -0.54077
 Alpha  occ. eigenvalues --   -0.50589  -0.48742  -0.46933  -0.44733  -0.43735
 Alpha  occ. eigenvalues --   -0.41714  -0.40606  -0.38571  -0.36707  -0.35129
 Alpha  occ. eigenvalues --   -0.34787  -0.32318  -0.31843  -0.27522  -0.23771
 Alpha virt. eigenvalues --   -0.03821  -0.02219   0.04259   0.07439   0.08781
 Alpha virt. eigenvalues --    0.09146   0.11554   0.13110   0.14068   0.15155
 Alpha virt. eigenvalues --    0.15460   0.17368   0.19227   0.20298   0.23977

 Mulliken atomic charges:
              1
     1  C   -0.230257
     2  O   -0.454380
     3  C    0.369672
     4  C   -0.194412
     5  C   -0.157291
     6  C    0.146408
     7  C   -0.170461
     8  C   -0.201426
     9  C    0.246988
    10  N   -0.473667
    11  H    0.184365
    12  H    0.173147
    13  H    0.173143
    14  H    0.144870
    15  H    0.152629
    16  H    0.151056
    17  H    0.139617
 Sum of Mulliken atomic charges =  -0.00000

 Dipole moment (field-independent basis, Debye):
    X=             -6.0572    Y=             -0.8761    Z=              0.0006  Tot=              6.1202
 Quadrupole moment (field-independent basis, Debye-Ang):
   XX=            -66.9130   YY=            -52.6236   ZZ=            -59.1912
   XY=              6.2696   XZ=             -0.0030   YZ=              0.0006

 Summary of Natural Population Analysis:

                                       Natural Population
                Natural  -----------------------------------------------
    Atom  No    Charge         Core      Valence    Rydberg      Total
 -----------------------------------------------------------------------
      C    1   -0.32564      1.99942     4.31227    0.01395     6.32564
      O    2   -0.44080      1.99975     6.42915    0.01190     8.44080
      C    3    0.32855      1.99884     3.64927    0.02335     5.67145
      C    4   -0.30391      1.99907     4.28482    0.02003     6.30391
      C    5   -0.21708      1.99909     4.20034    0.01764     6.21708
      C    6   -0.12277      1.99886     4.10942    0.01449     6.12277
      C    7   -0.23084      1.99910     4.21287    0.01887     6.23084
      C    8   -0.31501      1.99905     4.29912    0.01684     6.31501
      C    9    0.27581      1.99939     3.69109    0.03372     5.72419
      N   10   -0.29129      1.99966     5.27027    0.02137     7.29129
      H   11    0.23563      0.00000     0.76387    0.00050     0.76437
      H   12    0.21696      0.00000     0.78110    0.00194     0.78304
      H   13    0.21696      0.00000     0.78110    0.00194     0.78304
      H   14    0.24631      0.00000     0.75253    0.00116     0.75369
      H   15    0.24627      0.00000     0.75301    0.00072     0.75373
      H   16    0.24495      0.00000     0.75432    0.00073     0.75505
      H   17    0.23590      0.00000     0.76319    0.00091     0.76410
 =======================================================================
   * Total *   -0.00000     19.99221    49.80772    0.20007    70.00000

 Normal termination of Gaussian 09 at Wed Sep 29 01:53:20 2021.
