 Gaussian 09, Revision A.02,

 -----------------------------------
 #p opt b3lyp/6-31G* scf=(xqc,tight)
 -----------------------------------

 ---------------------
 O=C=NCc1ccccc1_conf_0
 ---------------------
 Symbolic Z-matrix:
 Charge =  0 Multiplicity = 1

 SCF Done:  E(RB3LYP) =  -439.025529909     A.U. after   14 cycles
 SCF Done:  E(RB3LYP) =  -439.035796835     A.U. after   15 cycles
 SCF Done:  E(RB3LYP) =  -439.035853529     A.U. after   13 cycles
 SCF Done:  E(RB3LYP) =  -439.037626475     A.U. after   15 cycles
 SCF Done:  E(RB3LYP) =  -439.038144851     A.U. after   13 cycles
 SCF Done:  E(RB3LYP) =  -439.038607077     A.U. after   15 cycles
 SCF Done:  E(RB3LYP) =  -439.038656878     A.U. after   13 cycles
 SCF Done:  E(RB3LYP) =  -439.038761908     A.U. after   15 cycles
 SCF Done:  E(RB3LYP) =  -439.038814981     A.U. after   13 cycles
 SCF Done:  E(RB3LYP) =  -439.038870518     A.U. after   13 cycles
 SCF Done:  E(RB3LYP) =  -439.038865443     A.U. after   15 cycles
 SCF Done:  E(RB3LYP) =  -439.038914473     A.U. after   15 cycles
 SCF Done:  E(RB3LYP) =  -439.038910288     A.U. after   13 cycles
 SCF Done:  E(RB3LYP) =  -439.038912725     A.U. after   13 cycles
 SCF Done:  E(RB3LYP) =  -439.038914740     A.U. after   11 cycles
 SCF Done:  E(RB3LYP) =  -439.038915098     A.U. after    9 cycles
 SCF Done:  E(RB3LYP) =  -439.038915227     A.U. after   10 cycles
 SCF Done:  E(RB3LYP) =  -439.038915226     A.U. after    9 cycles
 Optimization completed.
    -- Stationary point found.
 Normal termination of Gaussian 09 at Mon Oct  4 06:47:42 2021.

 ----------------------------------------------------------------------
 #p freq b3lyp/6-31G* volume NMR pop=NPA density=current Geom=AllCheck
 Guess=Read
 ----------------------------------------------------------------------

 O=C=NCc1ccccc1_conf_0
 ---------------------
 Redundant internal coordinates taken from checkpoint file:
 C8H7NO_9f83_conf_0.chk
 Charge =  0 Multiplicity = 1

 SCF Done:  E(RB3LYP) =  -439.038915226     A.U. after    1 cycles

  1  O    Isotropic =   192.7709   Anisotropy =   255.9161

  2  C    Isotropic =    75.4920   Anisotropy =   285.7448

  3  N    Isotropic =   212.8246   Anisotropy =   151.6244

  4  C    Isotropic =   141.5354   Anisotropy =    18.1989

  5  C    Isotropic =    57.4935   Anisotropy =   178.2856

  6  C    Isotropic =    67.2863   Anisotropy =   159.2594

  7  C    Isotropic =    67.2683   Anisotropy =   167.2934

  8  C    Isotropic =    68.0208   Anisotropy =   169.5853

  9  C    Isotropic =    67.8575   Anisotropy =   165.9596

 10  C    Isotropic =    68.1943   Anisotropy =   148.5233

 11  H    Isotropic =    28.0820   Anisotropy =     6.5727

 12  H    Isotropic =    28.3373   Anisotropy =     6.4577

 13  H    Isotropic =    24.8016   Anisotropy =     6.9927

 14  H    Isotropic =    24.8592   Anisotropy =     4.6760

 15  H    Isotropic =    24.9327   Anisotropy =     4.2724

 16  H    Isotropic =    24.9366   Anisotropy =     4.5890

 17  H    Isotropic =    25.1049   Anisotropy =     6.2823

  Exact polarizability:  96.106  11.983  69.074   1.630  -1.749  83.666
 Approx polarizability: 136.577  20.467 125.055   2.871   1.918 143.204

                     1                      2                      3
                     A                      A                      A
 Frequencies --    17.4884                28.3754                96.6939
 Red. masses --     4.2665                 7.7770                 5.6394
 Frc consts  --     0.0008                 0.0037                 0.0311
 IR Inten    --     0.4802                 0.5684                 6.0403

                     4                      5                      6
                     A                      A                      A
 Frequencies --   165.1197               314.4669               342.6122
 Red. masses --     6.0596                 2.7990                 3.9164
 Frc consts  --     0.0973                 0.1631                 0.2709
 IR Inten    --     1.4546                 3.8983                 1.6463

                     7                      8                      9
                     A                      A                      A
 Frequencies --   415.5114               490.4252               568.0985
 Red. masses --     2.9642                 3.9169                12.2205
 Frc consts  --     0.3015                 0.5551                 2.3237
 IR Inten    --     0.0808                 2.3047                22.0118

                    10                     11                     12
                     A                      A                      A
 Frequencies --   586.9206               635.7125               647.8558
 Red. masses --     5.7366                 6.3180                 7.6336
 Frc consts  --     1.1643                 1.5044                 1.8877
 IR Inten    --     1.7236                 0.1664                41.2926

                    13                     14                     15
                     A                      A                      A
 Frequencies --   714.0451               761.6324               828.8890
 Red. masses --     1.8729                 2.0696                 3.6402
 Frc consts  --     0.5626                 0.7073                 1.4735
 IR Inten    --    28.5301                39.5216                 5.2170

                    16                     17                     18
                     A                      A                      A
 Frequencies --   859.9720               880.1746               932.2608
 Red. masses --     1.2497                 4.7269                 1.4755
 Frc consts  --     0.5445                 2.1576                 0.7556
 IR Inten    --     0.0504                43.7564                 0.4067

                    19                     20                     21
                     A                      A                      A
 Frequencies --   967.8093               976.8980               999.4563
 Red. masses --     1.3566                 1.6762                 1.2603
 Frc consts  --     0.7486                 0.9425                 0.7418
 IR Inten    --     0.0120                 4.0681                 0.0019

                    22                     23                     24
                     A                      A                      A
 Frequencies --  1019.3992              1057.9838              1118.1219
 Red. masses --     6.2516                 2.2475                 1.5296
 Frc consts  --     3.8276                 1.4822                 1.1267
 IR Inten    --     0.6781                 1.0380                 2.7883

                    25                     26                     27
                     A                      A                      A
 Frequencies --  1194.3349              1214.1091              1228.9322
 Red. masses --     1.1043                 1.1409                 2.9083
 Frc consts  --     0.9281                 0.9909                 2.5879
 IR Inten    --     0.0319                 0.3199                 5.1980

                    28                     29                     30
                     A                      A                      A
 Frequencies --  1267.5136              1362.3915              1369.8829
 Red. masses --     1.1966                 4.5105                 1.2826
 Frc consts  --     1.1327                 4.9326                 1.4181
 IR Inten    --     7.6381                 0.9482                 2.0255

                    31                     32                     33
                     A                      A                      A
 Frequencies --  1390.7573              1484.3266              1502.9363
 Red. masses --     1.4490                 3.9721                 2.1952
 Frc consts  --     1.6513                 5.1563                 2.9215
 IR Inten    --    54.9724                 3.8320                 7.8750

                    34                     35                     36
                     A                      A                      A
 Frequencies --  1537.7738              1547.8956              1646.7679
 Red. masses --     1.2879                 1.9729                 5.5193
 Frc consts  --     1.7945                 2.7851                 8.8186
 IR Inten    --     2.6056                 3.2755                 0.6841

                    37                     38                     39
                     A                      A                      A
 Frequencies --  1665.2835              2374.1858              3059.0939
 Red. masses --     5.5522                12.4253                 1.0627
 Frc consts  --     9.0717                41.2653                 5.8592
 IR Inten    --     0.3746               956.2514                36.5318

                    40                     41                     42
                     A                      A                      A
 Frequencies --  3100.5246              3178.4722              3181.7383
 Red. masses --     1.1028                 1.0867                 1.0873
 Frc consts  --     6.2462                 6.4683                 6.4855
 IR Inten    --    15.4312                 6.9782                 3.1908

                    43                     44                     45
                     A                      A                      A
 Frequencies --  3192.1004              3201.6046              3212.3902
 Red. masses --     1.0900                 1.0940                 1.0979
 Frc consts  --     6.5439                 6.6068                 6.6754
 IR Inten    --     7.5544                33.7475                16.7018

 - Thermochemistry -
 -------------------
 Temperature   298.150 Kelvin.  Pressure   1.00000 Atm.
 Atom     1 has atomic number  8 and mass  15.99491

 Molecular mass:   133.05276 amu.
 Principal axes and moments of inertia in atomic units:
                           1         2         3
     Eigenvalues --   696.578112277.271232324.22992
           X            0.99966   0.02621  -0.00110
           Y           -0.02608   0.98814  -0.15132
           Z           -0.00288   0.15130   0.98848
 This molecule is an asymmetric top.
 Rotational symmetry number  1.
 Warning -- assumption of classical behavior for rotation
           may cause significant error
 Rotational temperatures (Kelvin)      0.12434     0.03803     0.03727
 Rotational constants (GHZ):           2.59087     0.79250     0.77649
 Zero-point vibrational energy     348944.3 (Joules/Mol)
                                   83.39970 (Kcal/Mol)
 Warning -- explicit consideration of  10 degrees of freedom as
           vibrations may cause significant error
 Vibrational temperatures:     25.16    40.83   139.12   237.57   452.45
          (Kelvin)            492.94   597.83   705.61   817.37   844.45
                              914.65   932.12  1027.35  1095.82  1192.58
                             1237.31  1266.37  1341.31  1392.46  1405.54
                             1437.99  1466.69  1522.20  1608.73  1718.38
                             1746.83  1768.16  1823.67  1960.18  1970.95
                             2000.99  2135.61  2162.39  2212.51  2227.07
                             2369.33  2395.97  3415.92  4401.35  4460.96
                             4573.11  4577.81  4592.71  4606.39  4621.91

 Zero-point correction=                           0.132906 (Hartree/Particle)
 Thermal correction to Energy=                    0.141554
 Thermal correction to Enthalpy=                  0.142499
 Thermal correction to Gibbs Free Energy=         0.096446
 Sum of electronic and zero-point Energies=           -438.906009
 Sum of electronic and thermal Energies=              -438.897361
 Sum of electronic and thermal Enthalpies=            -438.896417
 Sum of electronic and thermal Free Energies=         -438.942469

                     E (Thermal)             CV                S
                      KCal/Mol        Cal/Mol-Kelvin    Cal/Mol-Kelvin
 Total                   88.827             31.035             96.926
 Electronic               0.000              0.000              0.000
 Translational            0.889              2.981             40.569
 Rotational               0.889              2.981             29.690
 Vibrational             87.049             25.074             26.667
 Vibration     1          0.593              1.986              6.901
 Vibration     2          0.593              1.984              5.940
 Vibration     3          0.603              1.952              3.520
 Vibration     4          0.624              1.885              2.490
 Vibration     5          0.702              1.646              1.339
 Vibration     6          0.722              1.590              1.200
 Vibration     7          0.779              1.437              0.907
 Vibration     8          0.846              1.271              0.683
 Vibration     9          0.924              1.100              0.508
 Vibration    10          0.944              1.060              0.473

 Optimization completed.
    -- Stationary point found.
 Normal termination of Gaussian 09 at Mon Oct  4 07:44:08 2021.
 Gaussian 09:  AM64L-G09RevA.02 11-Jun-2009

 ----------------------------------------------------------------------
 #p TD(NStates=10, Root=1) b3lyp/6-31G* volume pop=NPA density=current
 Geom=AllCheck Guess=Read
 ----------------------------------------------------------------------

 O=C=NCc1ccccc1_conf_0
 ---------------------
 Redundant internal coordinates taken from checkpoint file:
 C8H7NO_9f83_conf_0.chk
 Charge =  0 Multiplicity = 1

                         Standard orientation:
 ---------------------------------------------------------------------
 Center     Atomic      Atomic             Coordinates (Angstroms)
 Number     Number       Type             X           Y           Z
 ---------------------------------------------------------------------
      1          8           0        3.019230   -1.560856   -0.321655
      2          6           0        2.550999   -0.509241   -0.060731
      3          7           0        2.199150    0.593066    0.288344
      4          6           0        1.038453    1.451803    0.108862
      5          6           0       -0.278657    0.702817    0.054928
      6          6           0       -0.840072    0.171708    1.223714
      7          6           0       -2.041610   -0.533085    1.174685
      8          6           0       -2.698694   -0.712950   -0.045447
      9          6           0       -2.147999   -0.185743   -1.213640
     10          6           0       -0.942699    0.517695   -1.162171
     11          1           0        1.178617    2.037711   -0.807479
     12          1           0        1.040343    2.161195    0.942547
     13          1           0       -0.330094    0.310497    2.174309
     14          1           0       -2.467963   -0.938943    2.088107
     15          1           0       -3.636595   -1.260304   -0.083509
     16          1           0       -2.654689   -0.320428   -2.165433
     17          1           0       -0.515841    0.927627   -2.074910
 ---------------------------------------------------------------------

 SCF Done:  E(RB3LYP) =  -439.038915226     A.U. after    1 cycles

 Excitation energies and oscillator strengths:

 Excited State   1:      Singlet-A      5.4150 eV  228.96 nm  f=0.0002  <S**2>=0.000
      34 -> 36         0.50758
      35 -> 37        -0.48201
 This state for optimization and/or second-order correction.
 Total Energy, E(TD-HF/TD-KS) =  -438.839916839
 Copying the excited state density for this state as the 1-particle RhoCI density.

 Excited State   2:      Singlet-A      5.9351 eV  208.90 nm  f=0.0395  <S**2>=0.000
      33 -> 36        -0.34114
      33 -> 38         0.17960
      34 -> 37         0.20181
      35 -> 36         0.53185
      35 -> 38        -0.13817

 Excited State   3:      Singlet-A      6.1800 eV  200.62 nm  f=0.0120  <S**2>=0.000
      33 -> 36         0.47328
      33 -> 37        -0.10371
      33 -> 38        -0.24055
      34 -> 37         0.32327
      35 -> 36         0.28462

 Excited State   4:      Singlet-A      6.4834 eV  191.23 nm  f=0.0369  <S**2>=0.000
      33 -> 36         0.24732
      33 -> 37         0.50041
      33 -> 38         0.22804
      34 -> 36        -0.16106
      35 -> 37        -0.22168
      35 -> 38        -0.21739

 Excited State   5:      Singlet-A      6.5584 eV  189.05 nm  f=0.0061  <S**2>=0.000
      32 -> 36         0.11581
      33 -> 36        -0.23577
      33 -> 37         0.37472
      33 -> 38        -0.35668
      35 -> 37        -0.10542
      35 -> 38         0.35639

 Excited State   6:      Singlet-A      6.6190 eV  187.32 nm  f=0.0658  <S**2>=0.000
      32 -> 36         0.62009
      33 -> 38         0.14790
      34 -> 37         0.22926

 Excited State   7:      Singlet-A      6.8097 eV  182.07 nm  f=0.0576  <S**2>=0.000
      32 -> 37         0.51131
      33 -> 36        -0.10199
      33 -> 37        -0.22691
      34 -> 36        -0.20943
      34 -> 37         0.12659
      34 -> 38         0.21527
      35 -> 37        -0.22096

 Excited State   8:      Singlet-A      6.8878 eV  180.01 nm  f=0.0689  <S**2>=0.000
      32 -> 36        -0.21419
      32 -> 37         0.15416
      33 -> 38         0.33002
      34 -> 37         0.23528
      34 -> 38        -0.25064
      35 -> 36        -0.11610
      35 -> 38         0.40091

 Excited State   9:      Singlet-A      6.9592 eV  178.16 nm  f=0.0645  <S**2>=0.000
      32 -> 37        -0.38857
      33 -> 38         0.20959
      34 -> 36        -0.18287
      34 -> 37         0.17808
      34 -> 38         0.42288
      35 -> 36        -0.11294
      35 -> 37        -0.11834
      35 -> 38         0.14254

 Excited State  10:      Singlet-A      7.2214 eV  171.69 nm  f=0.4487  <S**2>=0.000
      32 -> 36        -0.12371
      32 -> 38         0.19419
      33 -> 37         0.15595
      33 -> 38        -0.14032
      33 -> 39        -0.19116
      34 -> 36         0.19240
      34 -> 37         0.35099
      35 -> 36        -0.23872
      35 -> 37         0.18284
      35 -> 38        -0.21176
      35 -> 39         0.19608

 The electronic state is 1-A.
 Alpha  occ. eigenvalues --  -19.18682 -14.35552 -10.31762 -10.25084 -10.20826
 Alpha  occ. eigenvalues --  -10.20057 -10.19952 -10.19925 -10.19893 -10.19851
 Alpha  occ. eigenvalues --   -1.08886  -0.94794  -0.86323  -0.78417  -0.75327
 Alpha  occ. eigenvalues --   -0.71463  -0.61543  -0.60475  -0.53978  -0.51185
 Alpha  occ. eigenvalues --   -0.48647  -0.48341  -0.47513  -0.44709  -0.44609
 Alpha  occ. eigenvalues --   -0.42921  -0.41737  -0.41012  -0.37113  -0.36050
 Alpha  occ. eigenvalues --   -0.35120  -0.29211  -0.27695  -0.25893  -0.25403
 Alpha virt. eigenvalues --   -0.01688  -0.00949   0.02757   0.06083   0.09011
 Alpha virt. eigenvalues --    0.11429   0.12583   0.13247   0.15170   0.16060
 Alpha virt. eigenvalues --    0.16768   0.17938   0.18593   0.24075   0.26273

 Mulliken atomic charges:
              1
     1  O   -0.409152
     2  C    0.621010
     3  N   -0.427598
     4  C   -0.222895
     5  C    0.141723
     6  C   -0.170431
     7  C   -0.131386
     8  C   -0.131404
     9  C   -0.130707
    10  C   -0.178240
    11  H    0.168687
    12  H    0.171665
    13  H    0.141665
    14  H    0.141331
    15  H    0.138572
    16  H    0.140425
    17  H    0.136735
 Sum of Mulliken atomic charges =  -0.00000

 Dipole moment (field-independent basis, Debye):
    X=             -2.4601    Y=              1.6216    Z=             -0.0591  Tot=              2.9470
 Quadrupole moment (field-independent basis, Debye-Ang):
   XX=            -61.8156   YY=            -59.1679   ZZ=            -52.3889
   XY=              6.8000   XZ=              0.3721   YZ=             -1.8108

 Summary of Natural Population Analysis:

                                       Natural Population
                Natural  -----------------------------------------------
    Atom  No    Charge         Core      Valence    Rydberg      Total
 -----------------------------------------------------------------------
      O    1   -0.51357      1.99980     6.49000    0.02376     8.51357
      C    2    0.84683      1.99927     3.12558    0.02832     5.15317
      N    3   -0.55426      1.99915     5.53852    0.01659     7.55426
      C    4   -0.28640      1.99919     4.26926    0.01795     6.28640
      C    5   -0.05561      1.99904     4.03976    0.01680     6.05561
      C    6   -0.21703      1.99907     4.20026    0.01771     6.21703
      C    7   -0.21347      1.99915     4.19611    0.01821     6.21347
      C    8   -0.23220      1.99915     4.21549    0.01756     6.23220
      C    9   -0.21846      1.99915     4.20102    0.01829     6.21846
      C   10   -0.21375      1.99906     4.19740    0.01729     6.21375
      H   11    0.24463      0.00000     0.75351    0.00186     0.75537
      H   12    0.24990      0.00000     0.74771    0.00239     0.75010
      H   13    0.23333      0.00000     0.76553    0.00113     0.76667
      H   14    0.23344      0.00000     0.76570    0.00087     0.76656
      H   15    0.23325      0.00000     0.76592    0.00083     0.76675
      H   16    0.23365      0.00000     0.76548    0.00087     0.76635
      H   17    0.22971      0.00000     0.76921    0.00108     0.77029
 =======================================================================
   * Total *   -0.00000     19.99203    49.80646    0.20151    70.00000

 Normal termination of Gaussian 09 at Mon Oct  4 10:22:20 2021.
