 Gaussian 09, Revision A.02,

 -----------------------------------
 #p opt b3lyp/6-31G* scf=(xqc,tight)
 -----------------------------------

 -----------------------
 Cc1ccc2c(c1)ocn2_conf_0
 -----------------------
 Symbolic Z-matrix:
 Charge =  0 Multiplicity = 1

 SCF Done:  E(RB3LYP) =  -439.038583864     A.U. after   15 cycles
 SCF Done:  E(RB3LYP) =  -439.040586475     A.U. after   12 cycles
 SCF Done:  E(RB3LYP) =  -439.040725634     A.U. after   10 cycles
 SCF Done:  E(RB3LYP) =  -439.040739512     A.U. after    9 cycles
 SCF Done:  E(RB3LYP) =  -439.040741636     A.U. after    9 cycles
 SCF Done:  E(RB3LYP) =  -439.040742119     A.U. after    8 cycles
 Optimization completed.
    -- Stationary point found.
 Normal termination of Gaussian 09 at Mon Oct  4 11:37:07 2021.

 ----------------------------------------------------------------------
 #p freq b3lyp/6-31G* volume NMR pop=NPA density=current Geom=AllCheck
 Guess=Read
 ----------------------------------------------------------------------

 Cc1ccc2c(c1)ocn2_conf_0
 -----------------------
 Redundant internal coordinates taken from checkpoint file:
 C8H7NO_cb44_conf_0.chk
 Charge =  0 Multiplicity = 1

 SCF Done:  E(RB3LYP) =  -439.040742119     A.U. after    1 cycles

  1  C    Isotropic =   167.3517   Anisotropy =    36.1316

  2  C    Isotropic =    60.6555   Anisotropy =   171.9910

  3  C    Isotropic =    69.8871   Anisotropy =   139.3269

  4  C    Isotropic =    74.8650   Anisotropy =   149.9790

  5  C    Isotropic =    56.9523   Anisotropy =   128.5547

  6  C    Isotropic =    46.0424   Anisotropy =   120.9198

  7  C    Isotropic =    85.1052   Anisotropy =   130.1711

  8  O    Isotropic =    64.2172   Anisotropy =   212.3718

  9  C    Isotropic =    45.9131   Anisotropy =    70.2606

 10  N    Isotropic =     6.4719   Anisotropy =   344.3540

 11  H    Isotropic =    30.2592   Anisotropy =     7.3684

 12  H    Isotropic =    29.5983   Anisotropy =     8.1028

 13  H    Isotropic =    29.5999   Anisotropy =     8.0972

 14  H    Isotropic =    25.1376   Anisotropy =     6.6029

 15  H    Isotropic =    24.7112   Anisotropy =     4.7411

 16  H    Isotropic =    25.0403   Anisotropy =     6.9330

 17  H    Isotropic =    24.6962   Anisotropy =     4.5591

  Exact polarizability: 128.615  -2.017  90.711  -0.005   0.002  38.103
 Approx polarizability: 196.675  -7.089 167.652  -0.010   0.008  58.273

 ******    1 imaginary frequencies (negative Signs) ******

                     1                      2                      3
                     A                      A                      A
 Frequencies --   -68.0831               146.0795               253.4801
 Red. masses --     1.0408                 3.8013                 5.1138
 Frc consts  --     0.0028                 0.0478                 0.1936
 IR Inten    --     0.0758                 0.5803                 1.6804

                     4                      5                      6
                     A                      A                      A
 Frequencies --   296.6428               325.9839               434.4444
 Red. masses --     3.1014                 4.6311                 2.8292
 Frc consts  --     0.1608                 0.2900                 0.3146
 IR Inten    --     0.6960                 0.1449                 5.7146

                     7                      8                      9
                     A                      A                      A
 Frequencies --   436.0060               484.1869               618.6290
 Red. masses --     4.7517                 5.4310                 3.7792
 Frc consts  --     0.5322                 0.7502                 0.8521
 IR Inten    --     3.0504                 0.9132                 5.2276

                    10                     11                     12
                     A                      A                      A
 Frequencies --   624.7025               634.0457               763.1740
 Red. masses --     5.8099                 3.4448                 6.1096
 Frc consts  --     1.3359                 0.8159                 2.0966
 IR Inten    --     1.4607                 7.7802                 3.6055

                    13                     14                     15
                     A                      A                      A
 Frequencies --   768.5479               819.7355               831.8447
 Red. masses --     4.4321                 5.0727                 1.4436
 Frc consts  --     1.5424                 2.0083                 0.5885
 IR Inten    --     0.5994                 7.0115                26.8905

                    16                     17                     18
                     A                      A                      A
 Frequencies --   858.0128               881.6944               933.5174
 Red. masses --     1.4102                 1.3908                 7.2559
 Frc consts  --     0.6117                 0.6370                 3.7255
 IR Inten    --    15.2484                 2.9020                12.0745

                    19                     20                     21
                     A                      A                      A
 Frequencies --   951.4240               957.3123              1032.1076
 Red. masses --     3.8698                 1.2924                 1.4384
 Frc consts  --     2.0639                 0.6978                 0.9028
 IR Inten    --     4.4505                 0.5627                 2.4885

                    22                     23                     24
                     A                      A                      A
 Frequencies --  1073.8809              1100.5001              1132.9829
 Red. masses --     1.4952                 7.9560                 2.2721
 Frc consts  --     1.0159                 5.6771                 1.7184
 IR Inten    --     4.7046                65.4773                11.0933

                    25                     26                     27
                     A                      A                      A
 Frequencies --  1157.6825              1222.0910              1283.9541
 Red. masses --     1.4928                 1.6355                 7.5675
 Frc consts  --     1.1788                 1.4392                 7.3502
 IR Inten    --     5.9270                 4.9501                29.5042

                    28                     29                     30
                     A                      A                      A
 Frequencies --  1309.3808              1340.1136              1381.1633
 Red. masses --     1.4472                 1.7398                 6.2968
 Frc consts  --     1.4619                 1.8410                 7.0772
 IR Inten    --     2.6375                 3.6660                 5.9842

                    31                     32                     33
                     A                      A                      A
 Frequencies --  1443.9724              1476.0309              1515.4648
 Red. masses --     1.2409                 3.1670                 1.0442
 Frc consts  --     1.5244                 4.0653                 1.4130
 IR Inten    --     0.1145                17.1021                 5.7569

                    34                     35                     36
                     A                      A                      A
 Frequencies --  1520.7617              1534.6772              1581.7565
 Red. masses --     1.5354                 1.7485                 6.7957
 Frc consts  --     2.0921                 2.4263                10.0176
 IR Inten    --    22.5377                 6.8076                48.9174

                    37                     38                     39
                     A                      A                      A
 Frequencies --  1648.1350              1682.0343              3044.9101
 Red. masses --     7.0487                 7.3580                 1.0378
 Frc consts  --    11.2809                12.2653                 5.6692
 IR Inten    --     6.2661                11.0123                32.4914

                    40                     41                     42
                     A                      A                      A
 Frequencies --  3096.0051              3129.5102              3190.1819
 Red. masses --     1.1011                 1.1005                 1.0887
 Frc consts  --     6.2183                 6.3501                 6.5282
 IR Inten    --    19.8244                16.2458                13.6714

                    43                     44                     45
                     A                      A                      A
 Frequencies --  3210.4887              3221.0317              3291.2501
 Red. masses --     1.0919                 1.0938                 1.0984
 Frc consts  --     6.6310                 6.6863                 7.0104
 IR Inten    --     5.8314                 8.0541                 0.3310

 - Thermochemistry -
 -------------------
 Temperature   298.150 Kelvin.  Pressure   1.00000 Atm.
 Atom     1 has atomic number  6 and mass  12.00000

 Molecular mass:   133.05276 amu.
 Principal axes and moments of inertia in atomic units:
                           1         2         3
     Eigenvalues --   515.854891694.856172199.50751
           X            0.99997   0.00784  -0.00000
           Y           -0.00784   0.99997  -0.00000
           Z            0.00000   0.00000   1.00000
 This molecule is an asymmetric top.
 Rotational symmetry number  1.
 Warning -- assumption of classical behavior for rotation
           may cause significant error
 Rotational temperatures (Kelvin)      0.16790     0.05110     0.03938
 Rotational constants (GHZ):           3.49854     1.06483     0.82052
    1 imaginary frequencies ignored.
 Zero-point vibrational energy     350742.3 (Joules/Mol)
                                   83.82942 (Kcal/Mol)
 Warning -- explicit consideration of   8 degrees of freedom as
           vibrations may cause significant error
 Vibrational temperatures:    210.18   364.70   426.80   469.02   625.07
          (Kelvin)            627.31   696.64   890.07   898.81   912.25
                             1098.04  1105.77  1179.42  1196.84  1234.49
                             1268.56  1343.12  1368.89  1377.36  1484.97
                             1545.07  1583.37  1630.11  1665.64  1758.31
                             1847.32  1883.90  1928.12  1987.18  2077.55
                             2123.68  2180.41  2188.03  2208.06  2275.79
                             2371.30  2420.07  4380.94  4454.46  4502.66
                             4589.95  4619.17  4634.34  4735.37

 Zero-point correction=                           0.133591 (Hartree/Particle)
 Thermal correction to Energy=                    0.140389
 Thermal correction to Enthalpy=                  0.141333
 Thermal correction to Gibbs Free Energy=         0.102179
 Sum of electronic and zero-point Energies=           -438.907151
 Sum of electronic and thermal Energies=              -438.900353
 Sum of electronic and thermal Enthalpies=            -438.899409
 Sum of electronic and thermal Free Energies=         -438.938563

                     E (Thermal)             CV                S
                      KCal/Mol        Cal/Mol-Kelvin    Cal/Mol-Kelvin
 Total                   88.095             27.636             82.406
 Electronic               0.000              0.000              0.000
 Translational            0.889              2.981             40.569
 Rotational               0.889              2.981             29.043
 Vibrational             86.318             21.675             12.793
 Vibration     1          0.617              1.907              2.723
 Vibration     2          0.665              1.757              1.706
 Vibration     3          0.690              1.680              1.436
 Vibration     4          0.710              1.624              1.280
 Vibration     5          0.795              1.395              0.844
 Vibration     6          0.796              1.392              0.839
 Vibration     7          0.840              1.285              0.699
 Vibration     8          0.978              0.993              0.419

 Normal termination of Gaussian 09 at Mon Oct  4 12:41:46 2021.
 Gaussian 09:  AM64L-G09RevA.02 11-Jun-2009

 ----------------------------------------------------------------------
 #p TD(NStates=10, Root=1) b3lyp/6-31G* volume pop=NPA density=current
 Geom=AllCheck Guess=Read
 ----------------------------------------------------------------------

 Cc1ccc2c(c1)ocn2_conf_0
 -----------------------
 Redundant internal coordinates taken from checkpoint file:
 C8H7NO_cb44_conf_0.chk
 Charge =  0 Multiplicity = 1

                         Standard orientation:
 ---------------------------------------------------------------------
 Center     Atomic      Atomic             Coordinates (Angstroms)
 Number     Number       Type             X           Y           Z
 ---------------------------------------------------------------------
      1          6           0       -3.223131   -0.596352    0.000077
      2          6           0       -1.778339   -0.148808   -0.000128
      3          6           0       -1.455880    1.225931   -0.000120
      4          6           0       -0.141527    1.691782   -0.000004
      5          6           0        0.877077    0.738563    0.000049
      6          6           0        0.545874   -0.622507    0.000030
      7          6           0       -0.752277   -1.105094   -0.000060
      8          8           0        1.723964   -1.333859    0.000142
      9          6           0        2.686995   -0.356962   -0.000335
     10          7           0        2.272540    0.863649    0.000257
     11          1           0       -3.905219    0.259073   -0.002723
     12          1           0       -3.454462   -1.203897    0.883790
     13          1           0       -3.453221   -1.208786   -0.880557
     14          1           0       -2.269543    1.946572   -0.000171
     15          1           0        0.086285    2.752881    0.000034
     16          1           0       -0.964957   -2.169849   -0.000072
     17          1           0        3.708885   -0.709992   -0.000278
 ---------------------------------------------------------------------

 SCF Done:  E(RB3LYP) =  -439.040742119     A.U. after    1 cycles

 Excitation energies and oscillator strengths:

 Excited State   1:      Singlet-A      5.0715 eV  244.47 nm  f=0.0779  <S**2>=0.000
      34 -> 36         0.45604
      34 -> 37         0.17173
      35 -> 36         0.40053
      35 -> 37        -0.30751
 This state for optimization and/or second-order correction.
 Total Energy, E(TD-HF/TD-KS) =  -438.854366720
 Copying the excited state density for this state as the 1-particle RhoCI density.

 Excited State   2:      Singlet-A      5.3690 eV  230.93 nm  f=0.1385  <S**2>=0.000
      34 -> 36        -0.37007
      34 -> 37         0.11168
      35 -> 36         0.53627
      35 -> 37         0.23025

 Excited State   3:      Singlet-A      5.9553 eV  208.19 nm  f=0.0020  <S**2>=0.000
      33 -> 36         0.69581

 Excited State   4:      Singlet-A      6.2692 eV  197.77 nm  f=0.1863  <S**2>=0.000
      34 -> 36         0.32283
      34 -> 38        -0.24719
      35 -> 37         0.50708
      35 -> 38        -0.25194

 Excited State   5:      Singlet-A      6.6193 eV  187.31 nm  f=0.0435  <S**2>=0.000
      32 -> 36         0.17319
      34 -> 37         0.42892
      34 -> 38        -0.21980
      35 -> 37         0.11043
      35 -> 38         0.45875

 Excited State   6:      Singlet-A      7.0370 eV  176.19 nm  f=0.5466  <S**2>=0.000
      32 -> 36        -0.15665
      32 -> 37        -0.10488
      34 -> 36        -0.16192
      34 -> 37         0.48058
      35 -> 36        -0.15630
      35 -> 37        -0.14412
      35 -> 38        -0.38888

 Excited State   7:      Singlet-A      7.0945 eV  174.76 nm  f=0.0003  <S**2>=0.000
      33 -> 37         0.69257

 Excited State   8:      Singlet-A      7.2130 eV  171.89 nm  f=0.2180  <S**2>=0.000
      32 -> 36        -0.15430
      32 -> 37         0.14782
      34 -> 36         0.10552
      34 -> 37         0.17346
      34 -> 38         0.57747
      35 -> 36        -0.12776
      35 -> 37         0.22312

 Excited State   9:      Singlet-A      7.6028 eV  163.08 nm  f=0.0079  <S**2>=0.000
      30 -> 36        -0.48335
      33 -> 37         0.10523
      33 -> 38         0.48884

 Excited State  10:      Singlet-A      7.6119 eV  162.88 nm  f=0.0179  <S**2>=0.000
      32 -> 36         0.61896
      34 -> 38         0.16610
      35 -> 38        -0.20842

 The electronic state is 1-A.
 Alpha  occ. eigenvalues --  -19.22556 -14.33705 -10.28298 -10.24858 -10.21803
 Alpha  occ. eigenvalues --  -10.20668 -10.19900 -10.19683 -10.19208 -10.18872
 Alpha  occ. eigenvalues --   -1.12860  -0.92795  -0.85828  -0.77278  -0.75495
 Alpha  occ. eigenvalues --   -0.69535  -0.64196  -0.60608  -0.59241  -0.52177
 Alpha  occ. eigenvalues --   -0.51044  -0.47600  -0.47380  -0.45012  -0.43655
 Alpha  occ. eigenvalues --   -0.42205  -0.40427  -0.38449  -0.36906  -0.35301
 Alpha  occ. eigenvalues --   -0.35043  -0.32662  -0.29176  -0.24592  -0.23212
 Alpha virt. eigenvalues --   -0.02664   0.00888   0.03827   0.09648   0.11963
 Alpha virt. eigenvalues --    0.12499   0.13719   0.15089   0.15836   0.17325
 Alpha virt. eigenvalues --    0.18757   0.19865   0.21136   0.23795   0.28024

 Mulliken atomic charges:
              1
     1  C   -0.531081
     2  C    0.158393
     3  C   -0.180770
     4  C   -0.183882
     5  C    0.241661
     6  C    0.340431
     7  C   -0.240316
     8  O   -0.463983
     9  C    0.230000
    10  N   -0.465871
    11  H    0.159087
    12  H    0.168310
    13  H    0.168227
    14  H    0.140516
    15  H    0.146101
    16  H    0.141672
    17  H    0.171505
 Sum of Mulliken atomic charges =  -0.00000

 Dipole moment (field-independent basis, Debye):
    X=             -1.9672    Y=             -0.9424    Z=             -0.0001  Tot=              2.1813
 Quadrupole moment (field-independent basis, Debye-Ang):
   XX=            -51.7154   YY=            -56.5749   ZZ=            -59.0213
   XY=             -4.1586   XZ=             -0.0028   YZ=             -0.0004

 Summary of Natural Population Analysis:

                                       Natural Population
                Natural  -----------------------------------------------
    Atom  No    Charge         Core      Valence    Rydberg      Total
 -----------------------------------------------------------------------
      C    1   -0.69278      1.99940     4.68571    0.00768     6.69278
      C    2   -0.01331      1.99910     3.99875    0.01547     6.01331
      C    3   -0.16205      1.99909     4.14772    0.01524     6.16205
      C    4   -0.28586      1.99905     4.26813    0.01868     6.28586
      C    5    0.11508      1.99894     3.86311    0.02288     5.88492
      C    6    0.33015      1.99872     3.64746    0.02367     5.66985
      C    7   -0.32229      1.99895     4.30508    0.01826     6.32229
      O    8   -0.47332      1.99976     6.46181    0.01175     8.47332
      C    9    0.32146      1.99936     3.64424    0.03494     5.67854
      N   10   -0.49221      1.99946     5.46969    0.02306     7.49221
      H   11    0.23867      0.00000     0.76054    0.00079     0.76133
      H   12    0.24561      0.00000     0.75233    0.00206     0.75439
      H   13    0.24556      0.00000     0.75238    0.00206     0.75444
      H   14    0.23281      0.00000     0.76625    0.00094     0.76719
      H   15    0.24648      0.00000     0.75243    0.00109     0.75352
      H   16    0.24564      0.00000     0.75322    0.00114     0.75436
      H   17    0.22034      0.00000     0.77902    0.00064     0.77966
 =======================================================================
   * Total *    0.00000     19.99183    49.80784    0.20033    70.00000

 Normal termination of Gaussian 09 at Mon Oct  4 14:26:21 2021.
