 Gaussian 09, Revision A.02,

 -----------------------------------
 #p opt b3lyp/6-31G* scf=(xqc,tight)
 -----------------------------------

 ---------------------------
 FC(Oc1ccc(cc1)C)(F)F_conf_0
 ---------------------------
 Symbolic Z-matrix:
 Charge =  0 Multiplicity = 1

 SCF Done:  E(RB3LYP) =  -683.816197881     A.U. after   14 cycles
 SCF Done:  E(RB3LYP) =  -683.821391306     A.U. after   12 cycles
 SCF Done:  E(RB3LYP) =  -683.821993842     A.U. after   12 cycles
 SCF Done:  E(RB3LYP) =  -683.822216270     A.U. after   11 cycles
 SCF Done:  E(RB3LYP) =  -683.822245009     A.U. after   10 cycles
 SCF Done:  E(RB3LYP) =  -683.822248570     A.U. after    8 cycles
 SCF Done:  E(RB3LYP) =  -683.822251114     A.U. after    8 cycles
 SCF Done:  E(RB3LYP) =  -683.822257820     A.U. after   11 cycles
 SCF Done:  E(RB3LYP) =  -683.822265458     A.U. after   11 cycles
 SCF Done:  E(RB3LYP) =  -683.822273454     A.U. after   10 cycles
 SCF Done:  E(RB3LYP) =  -683.822306940     A.U. after    7 cycles
 SCF Done:  E(RB3LYP) =  -683.822308896     A.U. after   10 cycles
 SCF Done:  E(RB3LYP) =  -683.822310705     A.U. after   10 cycles
 SCF Done:  E(RB3LYP) =  -683.822313047     A.U. after   10 cycles
 SCF Done:  E(RB3LYP) =  -683.822312159     A.U. after    9 cycles
 SCF Done:  E(RB3LYP) =  -683.822313379     A.U. after    9 cycles
 SCF Done:  E(RB3LYP) =  -683.822313252     A.U. after    7 cycles
 SCF Done:  E(RB3LYP) =  -683.822313326     A.U. after    6 cycles
 Optimization completed.
    -- Stationary point found.
 Normal termination of Gaussian 09 at Thu Sep 30 13:50:08 2021.

 ----------------------------------------------------------------------
 #p freq b3lyp/6-31G* volume NMR pop=NPA density=current Geom=AllCheck
 Guess=Read
 ----------------------------------------------------------------------

 FC(Oc1ccc(cc1)C)(F)F_conf_0
 ---------------------------
 Redundant internal coordinates taken from checkpoint file:
 C8H7F3O_708b_conf_0.chk
 Charge =  0 Multiplicity = 1

 SCF Done:  E(RB3LYP) =  -683.822313326     A.U. after    1 cycles

  1  F    Isotropic =   261.9706   Anisotropy =   155.6452

  2  C    Isotropic =    65.8978   Anisotropy =     8.8829

  3  O    Isotropic =   182.8679   Anisotropy =    64.4170

  4  C    Isotropic =    47.3012   Anisotropy =   102.9402

  5  C    Isotropic =    75.9477   Anisotropy =   140.6598

  6  C    Isotropic =    66.0463   Anisotropy =   151.9739

  7  C    Isotropic =    61.3352   Anisotropy =   177.5587

  8  C    Isotropic =    65.9749   Anisotropy =   147.6460

  9  C    Isotropic =    78.4380   Anisotropy =   146.5668

 10  C    Isotropic =   168.1584   Anisotropy =    34.4879

 11  F    Isotropic =   258.5625   Anisotropy =   156.6787

 12  F    Isotropic =   249.8639   Anisotropy =   166.5293

 13  H    Isotropic =    25.3567   Anisotropy =     6.2020

 14  H    Isotropic =    25.0966   Anisotropy =     6.3946

 15  H    Isotropic =    25.1585   Anisotropy =     6.6385

 16  H    Isotropic =    25.0577   Anisotropy =     8.9798

 17  H    Isotropic =    29.9985   Anisotropy =     7.5447

 18  H    Isotropic =    30.2117   Anisotropy =     7.1787

 19  H    Isotropic =    29.7435   Anisotropy =     8.3878

  Exact polarizability: 119.135   1.584  87.952  -5.694   1.336  44.066
 Approx polarizability: 166.312   2.026 149.720 -11.532   2.259  66.545

                     1                      2                      3
                     A                      A                      A
 Frequencies --    15.3475                45.5518                62.9266
 Red. masses --     5.6116                 1.0251                 8.1923
 Frc consts  --     0.0008                 0.0013                 0.0191
 IR Inten    --     0.1712                 0.2510                 0.1417

                     4                      5                      6
                     A                      A                      A
 Frequencies --   114.3629               163.7187               276.3599
 Red. masses --     6.6902                 5.2660                 4.6817
 Frc consts  --     0.0516                 0.0832                 0.2107
 IR Inten    --     0.4239                 0.2891                 1.3079

                     7                      8                      9
                     A                      A                      A
 Frequencies --   327.0897               332.7339               375.1718
 Red. masses --     9.5318                 4.7613                 3.4856
 Frc consts  --     0.6008                 0.3106                 0.2891
 IR Inten    --     2.2164                 2.6521                 0.7868

                    10                     11                     12
                     A                      A                      A
 Frequencies --   424.2062               446.3684               487.9132
 Red. masses --     3.1120                10.0383                 6.4520
 Frc consts  --     0.3299                 1.1784                 0.9050
 IR Inten    --     0.1636                 1.1878                 1.5250

                    13                     14                     15
                     A                      A                      A
 Frequencies --   526.3535               584.9840               607.6962
 Red. masses --     3.3488                 8.2138                15.6165
 Frc consts  --     0.5466                 1.6561                 3.3979
 IR Inten    --     6.8825                 7.3816                 2.6087

                    16                     17                     18
                     A                      A                      A
 Frequencies --   647.3637               685.9318               714.5037
 Red. masses --     7.1838                 8.5525                 3.8774
 Frc consts  --     1.7738                 2.3708                 1.1663
 IR Inten    --     0.7217                 5.3893                 1.5596

                    19                     20                     21
                     A                      A                      A
 Frequencies --   771.9187               829.3355               842.2940
 Red. masses --     5.2232                 2.7846                 1.2720
 Frc consts  --     1.8337                 1.1284                 0.5317
 IR Inten    --     1.6737                20.6497                 0.9407

                    22                     23                     24
                     A                      A                      A
 Frequencies --   849.6479               936.3201               958.5145
 Red. masses --     2.2252                10.0223                 1.2795
 Frc consts  --     0.9465                 5.1769                 0.6926
 IR Inten    --    23.7926                 9.3290                 0.6473

                    25                     26                     27
                     A                      A                      A
 Frequencies --   962.9902              1021.0066              1041.9903
 Red. masses --     1.3270                 1.4051                 2.7318
 Frc consts  --     0.7251                 0.8630                 1.7476
 IR Inten    --     0.0398                 0.5062                 6.5076

                    28                     29                     30
                     A                      A                      A
 Frequencies --  1077.6128              1146.8717              1194.6369
 Red. masses --     1.5103                 1.2903                 3.2261
 Frc consts  --     1.0334                 1.0000                 2.7127
 IR Inten    --    12.5293                22.6305               245.1418

                    31                     32                     33
                     A                      A                      A
 Frequencies --  1215.8125              1237.4769              1249.4783
 Red. masses --     1.6477                 3.0401                 4.6339
 Frc consts  --     1.4350                 2.7429                 4.2624
 IR Inten    --    85.1486               122.4160                35.9187

                    34                     35                     36
                     A                      A                      A
 Frequencies --  1257.2278              1302.1205              1350.0019
 Red. masses --     7.6903                10.8881                 2.3277
 Frc consts  --     7.1618                10.8769                 2.4995
 IR Inten    --   342.4893               781.8922                40.2598

                    37                     38                     39
                     A                      A                      A
 Frequencies --  1352.1589              1445.3800              1460.7964
 Red. masses --     2.3197                 1.2417                 2.6785
 Frc consts  --     2.4989                 1.5284                 3.3676
 IR Inten    --    15.3029                 0.2929                 0.7525

                    40                     41                     42
                     A                      A                      A
 Frequencies --  1518.0397              1525.2989              1561.4837
 Red. masses --     1.0488                 1.1035                 2.5036
 Frc consts  --     1.4240                 1.5126                 3.5966
 IR Inten    --     5.9759                 6.2463                90.5231

                    43                     44                     45
                     A                      A                      A
 Frequencies --  1645.8812              1672.3172              3043.2097
 Red. masses --     6.3562                 5.8941                 1.0404
 Frc consts  --    10.1449                 9.7120                 5.6768
 IR Inten    --     5.5421                 4.8083                29.4585

                    46                     47                     48
                     A                      A                      A
 Frequencies --  3099.7944              3127.0455              3187.1289
 Red. masses --     1.0963                 1.1025                 1.0893
 Frc consts  --     6.2067                 6.3516                 6.5194
 IR Inten    --    19.9796                15.5864                15.0763

                    49                     50                     51
                     A                      A                      A
 Frequencies --  3188.6277              3222.1266              3247.8816
 Red. masses --     1.0898                 1.0935                 1.0923
 Frc consts  --     6.5284                 6.6890                 6.7888
 IR Inten    --    12.9300                 4.4943                 0.7659

 - Thermochemistry -
 -------------------
 Temperature   298.150 Kelvin.  Pressure   1.00000 Atm.
 Atom     1 has atomic number  9 and mass  18.99840

 Molecular mass:   176.04490 amu.
 Principal axes and moments of inertia in atomic units:
                           1         2         3
     Eigenvalues --   675.767193794.396574110.76135
           X            0.99998   0.00474  -0.00491
           Y           -0.00473   0.99998   0.00291
           Z            0.00492  -0.00289   0.99998
 This molecule is an asymmetric top.
 Rotational symmetry number  1.
 Warning -- assumption of classical behavior for rotation
           may cause significant error
 Rotational temperatures (Kelvin)      0.12817     0.02283     0.02107
 Rotational constants (GHZ):           2.67066     0.47563     0.43903
 Zero-point vibrational energy     361158.6 (Joules/Mol)
                                   86.31899 (Kcal/Mol)
 Warning -- explicit consideration of  15 degrees of freedom as
           vibrations may cause significant error
 Vibrational temperatures:     22.08    65.54    90.54   164.54   235.55
          (Kelvin)            397.62   470.61   478.73   539.79   610.34
                              642.22   702.00   757.30   841.66   874.34
                              931.41   986.90  1028.01  1110.62  1193.23
                             1211.87  1222.45  1347.15  1379.09  1385.53
                             1469.00  1499.19  1550.44  1650.09  1718.81
                             1749.28  1780.45  1797.72  1808.87  1873.46
                             1942.35  1945.45  2079.58  2101.76  2184.12
                             2194.56  2246.62  2368.05  2406.09  4378.49
                             4459.91  4499.12  4585.56  4587.72  4635.92
                             4672.97

 Zero-point correction=                           0.137558 (Hartree/Particle)
 Thermal correction to Energy=                    0.148179
 Thermal correction to Enthalpy=                  0.149123
 Thermal correction to Gibbs Free Energy=         0.098721
 Sum of electronic and zero-point Energies=           -683.684755
 Sum of electronic and thermal Energies=              -683.674134
 Sum of electronic and thermal Enthalpies=            -683.673190
 Sum of electronic and thermal Free Energies=         -683.723592

                     E (Thermal)             CV                S
                      KCal/Mol        Cal/Mol-Kelvin    Cal/Mol-Kelvin
 Total                   92.984             38.894            106.080
 Electronic               0.000              0.000              0.000
 Translational            0.889              2.981             41.404
 Rotational               0.889              2.981             30.734
 Vibrational             91.206             32.932             33.942
 Vibration     1          0.593              1.986              7.160
 Vibration     2          0.595              1.979              5.002
 Vibration     3          0.597              1.972              4.363
 Vibration     4          0.607              1.938              3.193
 Vibration     5          0.623              1.887              2.506
 Vibration     6          0.678              1.717              1.556
 Vibration     7          0.711              1.621              1.274
 Vibration     8          0.715              1.610              1.247
 Vibration     9          0.746              1.523              1.059
 Vibration    10          0.786              1.418              0.878
 Vibration    11          0.806              1.369              0.807
 Vibration    12          0.844              1.277              0.689
 Vibration    13          0.881              1.192              0.595
 Vibration    14          0.942              1.064              0.476
 Vibration    15          0.966              1.016              0.437

 Optimization completed.
    -- Stationary point found.
 Normal termination of Gaussian 09 at Thu Sep 30 14:22:41 2021.
 Gaussian 09:  AM64L-G09RevA.02 11-Jun-2009

 ----------------------------------------------------------------------
 #p TD(NStates=10, Root=1) b3lyp/6-31G* volume pop=NPA density=current
 Geom=AllCheck Guess=Read
 ----------------------------------------------------------------------

 FC(Oc1ccc(cc1)C)(F)F_conf_0
 ---------------------------
 Redundant internal coordinates taken from checkpoint file:
 C8H7F3O_708b_conf_0.chk
 Charge =  0 Multiplicity = 1

                         Standard orientation:
 ---------------------------------------------------------------------
 Center     Atomic      Atomic             Coordinates (Angstroms)
 Number     Number       Type             X           Y           Z
 ---------------------------------------------------------------------
      1          9           0        2.065697   -0.233802    1.372702
      2          6           0        2.284148   -0.028098    0.061808
      3          8           0        1.303370    0.696830   -0.524349
      4          6           0       -0.042734    0.365502   -0.301836
      5          6           0       -0.909538    1.444118   -0.150237
      6          6           0       -2.271277    1.205807    0.019451
      7          6           0       -2.784313   -0.098510    0.047736
      8          6           0       -1.883968   -1.159227   -0.104621
      9          6           0       -0.517345   -0.943472   -0.290003
     10          6           0       -4.265638   -0.347434    0.212033
     11          9           0        3.426330    0.644058   -0.085710
     12          9           0        2.445932   -1.245076   -0.508742
     13          1           0       -0.508331    2.452302   -0.162647
     14          1           0       -2.945349    2.050537    0.140014
     15          1           0       -2.253870   -2.181503   -0.085941
     16          1           0        0.158852   -1.779193   -0.420319
     17          1           0       -4.717726    0.368028    0.907664
     18          1           0       -4.462496   -1.355722    0.590325
     19          1           0       -4.795691   -0.247831   -0.744541
 ---------------------------------------------------------------------

 SCF Done:  E(RB3LYP) =  -683.822313326     A.U. after    1 cycles

 Excitation energies and oscillator strengths:

 Excited State   1:      Singlet-A      5.3032 eV  233.79 nm  f=0.0101  <S**2>=0.000
      44 -> 47         0.38794
      45 -> 46         0.58320
 This state for optimization and/or second-order correction.
 Total Energy, E(TD-HF/TD-KS) =  -683.627424873
 Copying the excited state density for this state as the 1-particle RhoCI density.

 Excited State   2:      Singlet-A      6.0353 eV  205.43 nm  f=0.0853  <S**2>=0.000
      44 -> 46        -0.37121
      45 -> 47         0.59053

 Excited State   3:      Singlet-A      7.0479 eV  175.92 nm  f=0.7486  <S**2>=0.000
      44 -> 46         0.58389
      44 -> 47         0.10871
      45 -> 47         0.35821

 Excited State   4:      Singlet-A      7.0686 eV  175.40 nm  f=0.3531  <S**2>=0.000
      43 -> 46         0.12527
      44 -> 47         0.56550
      45 -> 46        -0.37410

 Excited State   5:      Singlet-A      7.6862 eV  161.31 nm  f=0.0237  <S**2>=0.000
      42 -> 46         0.32363
      43 -> 46         0.59528
      45 -> 48         0.13045

 Excited State   6:      Singlet-A      7.7326 eV  160.34 nm  f=0.0010  <S**2>=0.000
      43 -> 46        -0.11151
      45 -> 48         0.68585

 Excited State   7:      Singlet-A      7.8176 eV  158.60 nm  f=0.0215  <S**2>=0.000
      42 -> 47         0.32613
      43 -> 47         0.60740

 Excited State   8:      Singlet-A      8.2212 eV  150.81 nm  f=0.0009  <S**2>=0.000
      40 -> 46         0.10567
      41 -> 46         0.48237
      42 -> 46        -0.25411
      43 -> 46         0.13018
      44 -> 48         0.40260

 Excited State   9:      Singlet-A      8.2366 eV  150.53 nm  f=0.0068  <S**2>=0.000
      40 -> 46        -0.10064
      41 -> 46        -0.19183
      42 -> 46         0.33346
      43 -> 46        -0.18029
      44 -> 48         0.54045

 Excited State  10:      Singlet-A      8.2853 eV  149.64 nm  f=0.0026  <S**2>=0.000
      41 -> 46         0.45731
      42 -> 46         0.41753
      43 -> 46        -0.23532
      44 -> 48        -0.18549

 The electronic state is 1-A.
 Alpha  occ. eigenvalues --  -24.73502 -24.73367 -24.73193 -19.21240 -10.48562
 Alpha  occ. eigenvalues --  -10.26309 -10.20568 -10.20125 -10.20051 -10.19945
 Alpha  occ. eigenvalues --  -10.19928 -10.19105  -1.32301  -1.23017  -1.22428
 Alpha  occ. eigenvalues --   -1.10106  -0.86806  -0.78880  -0.75857  -0.72307
 Alpha  occ. eigenvalues --   -0.67597  -0.63450  -0.62345  -0.60135  -0.59485
 Alpha  occ. eigenvalues --   -0.57247  -0.49944  -0.48328  -0.47721  -0.46607
 Alpha  occ. eigenvalues --   -0.45785  -0.44344  -0.44201  -0.43268  -0.42699
 Alpha  occ. eigenvalues --   -0.42536  -0.40653  -0.40544  -0.40006  -0.37356
 Alpha  occ. eigenvalues --   -0.36462  -0.35180  -0.33610  -0.26155  -0.24137
 Alpha virt. eigenvalues --   -0.01291  -0.00546   0.08215   0.11534   0.12858
 Alpha virt. eigenvalues --    0.13321   0.15594   0.16337   0.17132   0.17869
 Alpha virt. eigenvalues --    0.18626   0.19207   0.19921   0.21903   0.22717

 Mulliken atomic charges:
              1
     1  F   -0.255663
     2  C    0.971139
     3  O   -0.508331
     4  C    0.318619
     5  C   -0.164616
     6  C   -0.206254
     7  C    0.196273
     8  C   -0.208583
     9  C   -0.166884
    10  C   -0.533520
    11  F   -0.245791
    12  F   -0.264465
    13  H    0.147600
    14  H    0.128526
    15  H    0.131159
    16  H    0.154906
    17  H    0.165340
    18  H    0.163134
    19  H    0.177410
 Sum of Mulliken atomic charges =  -0.00000

 Dipole moment (field-independent basis, Debye):
    X=             -2.2630    Y=             -0.1349    Z=              0.0749  Tot=              2.2682
 Quadrupole moment (field-independent basis, Debye-Ang):
   XX=            -61.8336   YY=            -63.3600   ZZ=            -69.2132
   XY=              0.1093   XZ=             -0.3549   YZ=              0.5162

 Summary of Natural Population Analysis:

                                       Natural Population
                Natural  -----------------------------------------------
    Atom  No    Charge         Core      Valence    Rydberg      Total
 -----------------------------------------------------------------------
      F    1   -0.35584      1.99992     7.34932    0.00660     9.35584
      C    2    1.34642      1.99968     2.57002    0.08389     4.65358
      O    3   -0.53508      1.99966     6.52424    0.01118     8.53508
      C    4    0.31526      1.99870     3.66276    0.02328     5.68474
      C    5   -0.27300      1.99904     4.25440    0.01956     6.27300
      C    6   -0.26018      1.99907     4.24305    0.01805     6.26018
      C    7    0.02316      1.99906     3.96196    0.01582     5.97684
      C    8   -0.24096      1.99908     4.22388    0.01800     6.24096
      C    9   -0.30792      1.99903     4.28999    0.01889     6.30792
      C   10   -0.69640      1.99939     4.68915    0.00786     6.69640
      F   11   -0.34600      1.99992     7.33922    0.00686     9.34600
      F   12   -0.36645      1.99992     7.36000    0.00654     9.36645
      H   13    0.24569      0.00000     0.75321    0.00110     0.75431
      H   14    0.23132      0.00000     0.76768    0.00099     0.76868
      H   15    0.23145      0.00000     0.76753    0.00102     0.76855
      H   16    0.24795      0.00000     0.75041    0.00164     0.75205
      H   17    0.24473      0.00000     0.75352    0.00175     0.75527
      H   18    0.24216      0.00000     0.75655    0.00129     0.75784
      H   19    0.25370      0.00000     0.74477    0.00153     0.74630
 =======================================================================
   * Total *   -0.00000     23.99247    65.76167    0.24586    90.00000

 Normal termination of Gaussian 09 at Thu Sep 30 16:46:15 2021.
