 Gaussian 09, Revision A.02,

 -----------------------------------
 #p opt b3lyp/6-31G* scf=(xqc,tight)
 -----------------------------------

 ----------------------
 COc1cccc(c1)C#N_conf_0
 ----------------------
 Symbolic Z-matrix:
 Charge =  0 Multiplicity = 1

 SCF Done:  E(RB3LYP) =  -439.013525613     A.U. after   15 cycles
 SCF Done:  E(RB3LYP) =  -439.014802524     A.U. after   12 cycles
 SCF Done:  E(RB3LYP) =  -439.015023720     A.U. after   12 cycles
 SCF Done:  E(RB3LYP) =  -439.015127799     A.U. after   11 cycles
 SCF Done:  E(RB3LYP) =  -439.015180352     A.U. after   16 cycles
 SCF Done:  E(RB3LYP) =  -439.015188794     A.U. after   16 cycles
 SCF Done:  E(RB3LYP) =  -439.015189113     A.U. after    8 cycles
 Optimization completed.
    -- Stationary point found.
 Normal termination of Gaussian 09 at Wed Sep 29 00:50:25 2021.

 ----------------------------------------------------------------------
 #p freq b3lyp/6-31G* volume NMR pop=NPA density=current Geom=AllCheck
 Guess=Read
 ----------------------------------------------------------------------

 COc1cccc(c1)C#N_conf_0
 ----------------------
 Redundant internal coordinates taken from checkpoint file:
 C8H7NO_5732_conf_0.chk
 Charge =  0 Multiplicity = 1

 SCF Done:  E(RB3LYP) =  -439.015189113     A.U. after    1 cycles

  1  C    Isotropic =   137.1543   Anisotropy =    65.9431

  2  O    Isotropic =   233.2737   Anisotropy =    86.7514

  3  C    Isotropic =    38.8109   Anisotropy =   130.1941

  4  C    Isotropic =    74.4041   Anisotropy =   143.5011

  5  C    Isotropic =    66.7438   Anisotropy =   167.1149

  6  C    Isotropic =    70.7377   Anisotropy =   160.4592

  7  C    Isotropic =    80.0578   Anisotropy =   133.4017

  8  C    Isotropic =    81.8214   Anisotropy =   146.2914

  9  C    Isotropic =    81.9890   Anisotropy =   309.9707

 10  N    Isotropic =   -14.2895   Anisotropy =   388.7394

 11  H    Isotropic =    28.2310   Anisotropy =     7.8727

 12  H    Isotropic =    28.6271   Anisotropy =     7.7954

 13  H    Isotropic =    28.6276   Anisotropy =     7.7938

 14  H    Isotropic =    25.3141   Anisotropy =     5.8737

 15  H    Isotropic =    25.0114   Anisotropy =     4.2642

 16  H    Isotropic =    25.1853   Anisotropy =     5.4345

 17  H    Isotropic =    25.6460   Anisotropy =     8.6514

  Exact polarizability: 122.493  -6.793 104.194   0.000  -0.001  38.338
 Approx polarizability: 197.553 -23.848 172.921  -0.001  -0.003  56.614

                     1                      2                      3
                     A                      A                      A
 Frequencies --    97.5365               131.0804               139.6440
 Red. masses --     3.2064                 6.7809                 5.2305
 Frc consts  --     0.0180                 0.0686                 0.0601
 IR Inten    --     5.8040                 5.8438                 2.7792

                     4                      5                      6
                     A                      A                      A
 Frequencies --   216.5835               263.6911               277.6855
 Red. masses --     1.9056                 3.5975                 1.5954
 Frc consts  --     0.0527                 0.1474                 0.0725
 IR Inten    --     0.2336                 1.5839                 1.0031

                     7                      8                      9
                     A                      A                      A
 Frequencies --   402.9864               441.8649               467.4258
 Red. masses --     4.8385                 5.2467                 7.5865
 Frc consts  --     0.4630                 0.6035                 0.9766
 IR Inten    --     1.6266                 1.5531                 0.1459

                    10                     11                     12
                     A                      A                      A
 Frequencies --   487.8916               543.6067               590.0874
 Red. masses --     3.8564                 6.7158                 5.7312
 Frc consts  --     0.5409                 1.1693                 1.1758
 IR Inten    --     4.5049                 6.4578                 0.5196

                    13                     14                     15
                     A                      A                      A
 Frequencies --   633.4649               696.1173               722.0499
 Red. masses --     5.8773                 2.3398                 6.9215
 Frc consts  --     1.3895                 0.6680                 2.1261
 IR Inten    --     1.8980                10.2282                 1.0314

                    16                     17                     18
                     A                      A                      A
 Frequencies --   805.0674               874.7174               910.3054
 Red. masses --     1.4007                 1.5263                 1.3799
 Frc consts  --     0.5349                 0.6880                 0.6737
 IR Inten    --    33.7125                23.3084                 0.0285

                    19                     20                     21
                     A                      A                      A
 Frequencies --   938.8068               981.9637              1011.7119
 Red. masses --     4.3595                 1.2730                 6.1270
 Frc consts  --     2.2638                 0.7232                 3.6950
 IR Inten    --    18.3936                 0.3708                 3.1764

                    22                     23                     24
                     A                      A                      A
 Frequencies --  1077.8514              1114.7815              1185.3114
 Red. masses --     4.6284                 1.5898                 1.2690
 Frc consts  --     3.1681                 1.1641                 1.0505
 IR Inten    --    50.7541                 4.7868                 0.7901

                    25                     26                     27
                     A                      A                      A
 Frequencies --  1193.2971              1199.0615              1224.4215
 Red. masses --     1.5705                 1.2957                 1.5025
 Frc consts  --     1.3176                 1.0976                 1.3272
 IR Inten    --    39.0324                 5.5956                 2.1631

                    28                     29                     30
                     A                      A                      A
 Frequencies --  1313.8962              1330.5763              1377.7062
 Red. masses --     5.2454                 1.6827                 3.2951
 Frc consts  --     5.3352                 1.7553                 3.6850
 IR Inten    --   170.6411                11.9599                53.0301

                    31                     32                     33
                     A                      A                      A
 Frequencies --  1468.7845              1505.8196              1522.7385
 Red. masses --     2.5844                 1.3509                 1.0472
 Frc consts  --     3.2850                 1.8047                 1.4306
 IR Inten    --    39.6663                 4.8704                 6.5775

                    34                     35                     36
                     A                      A                      A
 Frequencies --  1531.4786              1543.6551              1639.6658
 Red. masses --     1.2167                 1.8473                 5.8509
 Frc consts  --     1.6813                 2.5935                 9.2679
 IR Inten    --    71.7122                16.6809                16.5879

                    37                     38                     39
                     A                      A                      A
 Frequencies --  1655.7046              2347.9027              3032.6102
 Red. masses --     5.3597                12.6828                 1.0345
 Frc consts  --     8.6568                41.1933                 5.6057
 IR Inten    --   100.7235                29.9120                42.5363

                    40                     41                     42
                     A                      A                      A
 Frequencies --  3094.5572              3166.1166              3202.4306
 Red. masses --     1.1071                 1.1003                 1.0876
 Frc consts  --     6.2466                 6.4983                 6.5716
 IR Inten    --    37.4272                21.3314                 6.9516

                    43                     44                     45
                     A                      A                      A
 Frequencies --  3220.8146              3230.0652              3244.5790
 Red. masses --     1.0925                 1.0954                 1.0906
 Frc consts  --     6.6773                 6.7333                 6.7645
 IR Inten    --     4.9918                 4.4954                 2.2213

 - Thermochemistry -
 -------------------
 Temperature   298.150 Kelvin.  Pressure   1.00000 Atm.
 Atom     1 has atomic number  6 and mass  12.00000

 Molecular mass:   133.05276 amu.
 Principal axes and moments of inertia in atomic units:
                           1         2         3
     Eigenvalues --   811.454891834.059022633.96869
           X            0.99812   0.06127   0.00000
           Y           -0.06127   0.99812  -0.00000
           Z           -0.00000   0.00000   1.00000
 This molecule is an asymmetric top.
 Rotational symmetry number  1.
 Warning -- assumption of classical behavior for rotation
           may cause significant error
 Rotational temperatures (Kelvin)      0.10674     0.04723     0.03288
 Rotational constants (GHZ):           2.22408     0.98401     0.68518
 Zero-point vibrational energy     347264.6 (Joules/Mol)
                                   82.99824 (Kcal/Mol)
 Warning -- explicit consideration of  12 degrees of freedom as
           vibrations may cause significant error
 Vibrational temperatures:    140.33   188.60   200.92   311.62   379.39
          (Kelvin)            399.53   579.81   635.74   672.52   701.97
                              782.13   849.00   911.41  1001.56  1038.87
                             1158.31  1258.52  1309.72  1350.73  1412.83
                             1455.63  1550.79  1603.92  1705.40  1716.89
                             1725.18  1761.67  1890.40  1914.40  1982.21
                             2113.25  2166.54  2190.88  2203.45  2220.97
                             2359.11  2382.19  3378.10  4363.24  4452.37
                             4555.33  4607.58  4634.03  4647.34  4668.22

 Zero-point correction=                           0.132266 (Hartree/Particle)
 Thermal correction to Energy=                    0.140892
 Thermal correction to Enthalpy=                  0.141837
 Thermal correction to Gibbs Free Energy=         0.098512
 Sum of electronic and zero-point Energies=           -438.882923
 Sum of electronic and thermal Energies=              -438.874297
 Sum of electronic and thermal Enthalpies=            -438.873352
 Sum of electronic and thermal Free Energies=         -438.916677

                     E (Thermal)             CV                S
                      KCal/Mol        Cal/Mol-Kelvin    Cal/Mol-Kelvin
 Total                   88.411             32.353             91.184
 Electronic               0.000              0.000              0.000
 Translational            0.889              2.981             40.569
 Rotational               0.889              2.981             29.751
 Vibrational             86.634             26.391             20.864
 Vibration     1          0.603              1.951              3.503
 Vibration     2          0.612              1.922              2.930
 Vibration     3          0.615              1.914              2.809
 Vibration     4          0.645              1.816              1.987
 Vibration     5          0.670              1.739              1.637
 Vibration     6          0.679              1.715              1.548
 Vibration     7          0.768              1.464              0.952
 Vibration     8          0.802              1.379              0.821
 Vibration     9          0.825              1.322              0.745
 Vibration    10          0.844              1.277              0.689
 Vibration    11          0.899              1.154              0.558
 Vibration    12          0.947              1.053              0.467

 Optimization completed.
    -- Stationary point found.
 Normal termination of Gaussian 09 at Wed Sep 29 01:16:36 2021.
 Gaussian 09:  AM64L-G09RevA.02 11-Jun-2009

 ----------------------------------------------------------------------
 #p TD(NStates=10, Root=1) b3lyp/6-31G* volume pop=NPA density=current
 Geom=AllCheck Guess=Read
 ----------------------------------------------------------------------

 COc1cccc(c1)C#N_conf_0
 ----------------------
 Redundant internal coordinates taken from checkpoint file:
 C8H7NO_5732_conf_0.chk
 Charge =  0 Multiplicity = 1

                         Standard orientation:
 ---------------------------------------------------------------------
 Center     Atomic      Atomic             Coordinates (Angstroms)
 Number     Number       Type             X           Y           Z
 ---------------------------------------------------------------------
      1          6           0       -2.688948   -1.584714   -0.000058
      2          8           0       -2.434612   -0.186097    0.000016
      3          6           0       -1.141930    0.237161    0.000127
      4          6           0       -0.957415    1.630094    0.000001
      5          6           0        0.323894    2.167631   -0.000052
      6          6           0        1.446492    1.337167    0.000018
      7          6           0        1.260561   -0.050734   -0.000001
      8          6           0       -0.031212   -0.609741    0.000037
      9          6           0        2.397968   -0.925916   -0.000051
     10          7           0        3.317847   -1.638180    0.000012
     11          1           0       -3.774959   -1.688981   -0.000353
     12          1           0       -2.277527   -2.067582    0.895637
     13          1           0       -2.277027   -2.067697   -0.895421
     14          1           0       -1.837360    2.265522   -0.000093
     15          1           0        0.451873    3.246103   -0.000123
     16          1           0        2.449229    1.750003    0.000062
     17          1           0       -0.138721   -1.687025   -0.000040
 ---------------------------------------------------------------------

 SCF Done:  E(RB3LYP) =  -439.015189113     A.U. after    1 cycles

 Excitation energies and oscillator strengths:

 Excited State   1:      Singlet-A      4.6751 eV  265.20 nm  f=0.0616  <S**2>=0.000
      34 -> 36        -0.16707
      34 -> 37         0.20894
      35 -> 36         0.63964
      35 -> 37         0.13425
 This state for optimization and/or second-order correction.
 Total Energy, E(TD-HF/TD-KS) =  -438.843380515
 Copying the excited state density for this state as the 1-particle RhoCI density.

 Excited State   2:      Singlet-A      5.5068 eV  225.15 nm  f=0.0938  <S**2>=0.000
      34 -> 36         0.52136
      35 -> 36         0.22830
      35 -> 37        -0.40155

 Excited State   3:      Singlet-A      6.2465 eV  198.49 nm  f=0.5299  <S**2>=0.000
      32 -> 38         0.10148
      33 -> 36        -0.26569
      34 -> 36         0.40747
      35 -> 37         0.48720

 Excited State   4:      Singlet-A      6.2992 eV  196.83 nm  f=0.0000  <S**2>=0.000
      32 -> 36         0.68847

 Excited State   5:      Singlet-A      6.6180 eV  187.34 nm  f=0.0000  <S**2>=0.000
      33 -> 38        -0.11645
      34 -> 38         0.20724
      35 -> 38         0.65727

 Excited State   6:      Singlet-A      6.6299 eV  187.01 nm  f=0.1459  <S**2>=0.000
      29 -> 36         0.11884
      33 -> 36        -0.34643
      34 -> 37         0.52960
      35 -> 36        -0.12731
      35 -> 37        -0.22229

 Excited State   7:      Singlet-A      6.9716 eV  177.84 nm  f=0.2073  <S**2>=0.000
      32 -> 38        -0.14076
      33 -> 36         0.52299
      34 -> 36         0.13411
      34 -> 37         0.36686
      35 -> 36        -0.11189
      35 -> 37         0.13767

 Excited State   8:      Singlet-A      7.0436 eV  176.02 nm  f=0.0010  <S**2>=0.000
      31 -> 36         0.69341

 Excited State   9:      Singlet-A      7.1520 eV  173.36 nm  f=0.0000  <S**2>=0.000
      33 -> 38        -0.12239
      34 -> 38         0.64537
      35 -> 38        -0.23697

 Excited State  10:      Singlet-A      7.5509 eV  164.20 nm  f=0.0060  <S**2>=0.000
      30 -> 36         0.57090
      35 -> 39         0.39572

 The electronic state is 1-A.
 Alpha  occ. eigenvalues --  -19.19579 -14.33386 -10.27004 -10.25467 -10.24098
 Alpha  occ. eigenvalues --  -10.22705 -10.21538 -10.21282 -10.21172 -10.20854
 Alpha  occ. eigenvalues --   -1.08242  -0.90494  -0.87328  -0.78817  -0.77042
 Alpha  occ. eigenvalues --   -0.71773  -0.65610  -0.61716  -0.56906  -0.51151
 Alpha  occ. eigenvalues --   -0.50804  -0.49154  -0.48384  -0.45624  -0.43481
 Alpha  occ. eigenvalues --   -0.40650  -0.39620  -0.38461  -0.36494  -0.36105
 Alpha  occ. eigenvalues --   -0.34637  -0.32886  -0.32454  -0.26813  -0.24021
 Alpha virt. eigenvalues --   -0.04917  -0.01028   0.03870   0.07568   0.08393
 Alpha virt. eigenvalues --    0.09414   0.11400   0.13980   0.14444   0.15102
 Alpha virt. eigenvalues --    0.15549   0.17071   0.18090   0.21075   0.25513

 Mulliken atomic charges:
              1
     1  C   -0.243650
     2  O   -0.422079
     3  C    0.358498
     4  C   -0.181971
     5  C   -0.149004
     6  C   -0.119335
     7  C    0.112101
     8  C   -0.207031
     9  C    0.176684
    10  N   -0.507401
    11  H    0.193482
    12  H    0.191622
    13  H    0.191627
    14  H    0.139709
    15  H    0.143681
    16  H    0.167367
    17  H    0.155701
 Sum of Mulliken atomic charges =  -0.00000

 Dipole moment (field-independent basis, Debye):
    X=             -6.3967    Y=              1.0435    Z=             -0.0002  Tot=              6.4813
 Quadrupole moment (field-independent basis, Debye-Ang):
   XX=            -66.6599   YY=            -53.4134   ZZ=            -59.1083
   XY=             17.6541   XZ=              0.0002   YZ=              0.0001

 Summary of Natural Population Analysis:

                                       Natural Population
                Natural  -----------------------------------------------
    Atom  No    Charge         Core      Valence    Rydberg      Total
 -----------------------------------------------------------------------
      C    1   -0.33320      1.99941     4.31976    0.01403     6.33320
      O    2   -0.38335      1.99975     6.37200    0.01160     8.38335
      C    3    0.33766      1.99880     3.64074    0.02280     5.66234
      C    4   -0.32403      1.99907     4.30618    0.01878     6.32403
      C    5   -0.25005      1.99913     4.23406    0.01685     6.25005
      C    6   -0.12292      1.99906     4.10897    0.01489     6.12292
      C    7   -0.19750      1.99889     4.18161    0.01699     6.19750
      C    8   -0.27218      1.99901     4.25821    0.01496     6.27218
      C    9    0.21856      1.99939     3.74664    0.03541     5.78144
      N   10   -0.35835      1.99965     5.33594    0.02275     7.35835
      H   11    0.24028      0.00000     0.75925    0.00047     0.75972
      H   12    0.22990      0.00000     0.76856    0.00154     0.77010
      H   13    0.22990      0.00000     0.76857    0.00154     0.77010
      H   14    0.24504      0.00000     0.75376    0.00119     0.75496
      H   15    0.24371      0.00000     0.75553    0.00075     0.75629
      H   16    0.25115      0.00000     0.74807    0.00078     0.74885
      H   17    0.24538      0.00000     0.75371    0.00091     0.75462
 =======================================================================
   * Total *   -0.00000     19.99217    49.81158    0.19625    70.00000

 Normal termination of Gaussian 09 at Wed Sep 29 02:32:17 2021.
