 Gaussian 09, Revision A.02,

 -----------------------------------
 #p opt b3lyp/6-31G* scf=(xqc,tight)
 -----------------------------------

 ---------------------------
 COc1cccc(c1)C(F)(F)F_conf_0
 ---------------------------
 Symbolic Z-matrix:
 Charge =  0 Multiplicity = 1

 SCF Done:  E(RB3LYP) =  -683.806881463     A.U. after   14 cycles
 SCF Done:  E(RB3LYP) =  -683.808573613     A.U. after   15 cycles
 SCF Done:  E(RB3LYP) =  -683.808784629     A.U. after   11 cycles
 SCF Done:  E(RB3LYP) =  -683.808796900     A.U. after    9 cycles
 SCF Done:  E(RB3LYP) =  -683.808797548     A.U. after    7 cycles
 SCF Done:  E(RB3LYP) =  -683.808797716     A.U. after    7 cycles
 SCF Done:  E(RB3LYP) =  -683.808797918     A.U. after    7 cycles
 SCF Done:  E(RB3LYP) =  -683.808798102     A.U. after    8 cycles
 SCF Done:  E(RB3LYP) =  -683.808797840     A.U. after    7 cycles
 SCF Done:  E(RB3LYP) =  -683.805173535     A.U. after   12 cycles
 SCF Done:  E(RB3LYP) =  -683.808994868     A.U. after   11 cycles
 SCF Done:  E(RB3LYP) =  -683.809110731     A.U. after   13 cycles
 SCF Done:  E(RB3LYP) =  -683.809136313     A.U. after   11 cycles
 SCF Done:  E(RB3LYP) =  -683.809140737     A.U. after   11 cycles
 SCF Done:  E(RB3LYP) =  -683.809141340     A.U. after   10 cycles
 SCF Done:  E(RB3LYP) =  -683.809141743     A.U. after    9 cycles
 SCF Done:  E(RB3LYP) =  -683.809141713     A.U. after    7 cycles
 SCF Done:  E(RB3LYP) =  -683.809141733     A.U. after    6 cycles
 Optimization completed.
    -- Stationary point found.
 Normal termination of Gaussian 09 at Wed Sep 29 02:18:55 2021.

 ----------------------------------------------------------------------
 #p freq b3lyp/6-31G* volume NMR pop=NPA density=current Geom=AllCheck
 Guess=Read
 ----------------------------------------------------------------------

 COc1cccc(c1)C(F)(F)F_conf_0
 ---------------------------
 Redundant internal coordinates taken from checkpoint file:
 C8H7F3O_6429_conf_0.chk
 Charge =  0 Multiplicity = 1

 SCF Done:  E(RB3LYP) =  -683.809141733     A.U. after    1 cycles

  1  C    Isotropic =   137.2553   Anisotropy =    65.7116

  2  O    Isotropic =   234.0340   Anisotropy =    84.5522

  3  C    Isotropic =    38.8625   Anisotropy =   127.5339

  4  C    Isotropic =    84.2126   Anisotropy =   148.0289

  5  C    Isotropic =    66.6091   Anisotropy =   166.0927

  6  C    Isotropic =    77.6635   Anisotropy =   157.2070

  7  C    Isotropic =    61.8213   Anisotropy =   146.9557

  8  C    Isotropic =    79.8620   Anisotropy =   137.7093

  9  C    Isotropic =    63.0734   Anisotropy =    12.0832

 10  F    Isotropic =   267.6298   Anisotropy =   125.1698

 11  F    Isotropic =   250.1506   Anisotropy =   127.6981

 12  F    Isotropic =   279.1519   Anisotropy =   119.2525

 13  H    Isotropic =    28.2194   Anisotropy =     8.0640

 14  H    Isotropic =    28.6361   Anisotropy =     8.1983

 15  H    Isotropic =    28.6245   Anisotropy =     8.2028

 16  H    Isotropic =    25.6793   Anisotropy =     6.9690

 17  H    Isotropic =    24.9516   Anisotropy =     4.7005

 18  H    Isotropic =    25.1684   Anisotropy =     7.2911

 19  H    Isotropic =    25.2514   Anisotropy =     9.2312

  Exact polarizability: 116.232   5.445  92.735  -0.501   0.253  43.647
 Approx polarizability: 166.198   8.087 158.548  -1.160   0.702  65.688

                     1                      2                      3
                     A                      A                      A
 Frequencies --    20.9406                77.8274               138.8638
 Red. masses --     9.6853                 3.3610                 5.8620
 Frc consts  --     0.0025                 0.0120                 0.0666
 IR Inten    --     0.1182                 3.2266                 0.9666

                     4                      5                      6
                     A                      A                      A
 Frequencies --   153.6147               212.6152               271.5355
 Red. masses --     6.9174                 1.7742                 3.6857
 Frc consts  --     0.0962                 0.0473                 0.1601
 IR Inten    --     0.0124                 0.4025                 2.7153

                     7                      8                      9
                     A                      A                      A
 Frequencies --   276.7603               304.3554               333.1595
 Red. masses --     1.6682                 8.7900                 6.6084
 Frc consts  --     0.0753                 0.4797                 0.4322
 IR Inten    --     0.7497                 4.0596                 0.0590

                    10                     11                     12
                     A                      A                      A
 Frequencies --   380.0958               462.4802               472.9083
 Red. masses --     8.1301                 3.9956                 6.1556
 Frc consts  --     0.6920                 0.5035                 0.8111
 IR Inten    --     1.0079                 0.4491                 0.9409

                    13                     14                     15
                     A                      A                      A
 Frequencies --   524.5590               568.1335               588.9060
 Red. masses --     7.4965                 6.8985                 6.5340
 Frc consts  --     1.2153                 1.3119                 1.3351
 IR Inten    --     1.8407                 3.1152                 2.1620

                    16                     17                     18
                     A                      A                      A
 Frequencies --   653.3252               664.3798               710.6644
 Red. masses --     5.0520                 8.8560                 2.4796
 Frc consts  --     1.2705                 2.3032                 0.7378
 IR Inten    --     0.9172                10.8602                11.8222

                    19                     20                     21
                     A                      A                      A
 Frequencies --   747.3266               797.6844               882.3337
 Red. masses --     9.9312                 1.5070                 5.8679
 Frc consts  --     3.2679                 0.5650                 2.6915
 IR Inten    --    12.5991                38.6513                23.6661

                    22                     23                     24
                     A                      A                      A
 Frequencies --   891.7490               904.7741               969.7176
 Red. masses --     1.4082                 1.4304                 1.2648
 Frc consts  --     0.6598                 0.6899                 0.7007
 IR Inten    --     0.7276                23.2573                 0.1279

                    25                     26                     27
                     A                      A                      A
 Frequencies --  1013.3775              1083.6488              1093.4381
 Red. masses --     5.9856                 9.0634                 2.0773
 Frc consts  --     3.6216                 6.2707                 1.4633
 IR Inten    --     1.4294               189.9271                11.2225

                    28                     29                     30
                     A                      A                      A
 Frequencies --  1128.2649              1184.1906              1184.8802
 Red. masses --     1.6635                 1.8392                 3.0393
 Frc consts  --     1.2476                 1.5196                 2.5141
 IR Inten    --    19.0722               102.9224               154.2356

                    31                     32                     33
                     A                      A                      A
 Frequencies --  1208.0154              1211.9928              1218.9470
 Red. masses --     1.1834                 3.4846                 1.6468
 Frc consts  --     1.0175                 3.0158                 1.4417
 IR Inten    --     5.3779               140.4149                47.8449

                    34                     35                     36
                     A                      A                      A
 Frequencies --  1275.4715              1335.6776              1348.4703
 Red. masses --     3.2445                 1.5791                 6.2135
 Frc consts  --     3.1099                 1.6598                 6.6568
 IR Inten    --    51.0209                62.7695               375.1885

                    37                     38                     39
                     A                      A                      A
 Frequencies --  1378.4951              1491.0941              1508.9507
 Red. masses --     4.5787                 1.6858                 1.8554
 Frc consts  --     5.1262                 2.2083                 2.4890
 IR Inten    --    82.7932                77.3558                38.0331

                    40                     41                     42
                     A                      A                      A
 Frequencies --  1521.6057              1535.1056              1542.4072
 Red. masses --     1.0480                 1.0849                 2.4364
 Frc consts  --     1.4295                 1.5064                 3.4150
 IR Inten    --     5.9213                12.2952                34.2534

                    43                     44                     45
                     A                      A                      A
 Frequencies --  1647.1082              1676.0185              3028.0943
 Red. masses --     5.7619                 6.0660                 1.0347
 Frc consts  --     9.2100                10.0395                 5.5901
 IR Inten    --    51.8928                30.3218                49.3167

                    46                     47                     48
                     A                      A                      A
 Frequencies --  3088.1476              3162.2182              3197.6381
 Red. masses --     1.1069                 1.0998                 1.0881
 Frc consts  --     6.2195                 6.4799                 6.5550
 IR Inten    --    41.6666                22.5994                 9.3973

                    49                     50                     51
                     A                      A                      A
 Frequencies --  3225.4094              3231.5724              3239.4040
 Red. masses --     1.0918                 1.0933                 1.0910
 Frc consts  --     6.6922                 6.7267                 6.7454
 IR Inten    --     6.8720                 7.8882                 0.2993

 - Thermochemistry -
 -------------------
 Temperature   298.150 Kelvin.  Pressure   1.00000 Atm.
 Atom     1 has atomic number  6 and mass  12.00000

 Molecular mass:   176.04490 amu.
 Principal axes and moments of inertia in atomic units:
                           1         2         3
     Eigenvalues --   915.147013411.083903995.23077
           X            0.99996   0.00937  -0.00043
           Y           -0.00937   0.99996   0.00021
           Z            0.00043  -0.00021   1.00000
 This molecule is an asymmetric top.
 Rotational symmetry number  1.
 Warning -- assumption of classical behavior for rotation
           may cause significant error
 Rotational temperatures (Kelvin)      0.09464     0.02539     0.02168
 Rotational constants (GHZ):           1.97208     0.52908     0.45172
 Zero-point vibrational energy     363475.5 (Joules/Mol)
                                   86.87272 (Kcal/Mol)
 Warning -- explicit consideration of  15 degrees of freedom as
           vibrations may cause significant error
 Vibrational temperatures:     30.13   111.98   199.79   221.02   305.91
          (Kelvin)            390.68   398.20   437.90   479.34   546.87
                              665.40   680.41   754.72   817.42   847.30
                              939.99   955.89  1022.49  1075.23  1147.69
                             1269.48  1283.03  1301.77  1395.21  1458.02
                             1559.13  1573.21  1623.32  1703.78  1704.78
                             1738.06  1743.79  1753.79  1835.12  1921.74
                             1940.15  1983.34  2145.35  2171.04  2189.25
                             2208.67  2219.18  2369.82  2411.41  4356.75
                             4443.15  4549.72  4600.68  4640.64  4649.51
                             4660.77

 Zero-point correction=                           0.138440 (Hartree/Particle)
 Thermal correction to Energy=                    0.148881
 Thermal correction to Enthalpy=                  0.149825
 Thermal correction to Gibbs Free Energy=         0.100984
 Sum of electronic and zero-point Energies=           -683.670701
 Sum of electronic and thermal Energies=              -683.660261
 Sum of electronic and thermal Enthalpies=            -683.659316
 Sum of electronic and thermal Free Energies=         -683.708158

                     E (Thermal)             CV                S
                      KCal/Mol        Cal/Mol-Kelvin    Cal/Mol-Kelvin
 Total                   93.424             38.923            102.796
 Electronic               0.000              0.000              0.000
 Translational            0.889              2.981             41.404
 Rotational               0.889              2.981             30.901
 Vibrational             91.647             32.961             30.491
 Vibration     1          0.593              1.986              6.543
 Vibration     2          0.599              1.964              3.945
 Vibration     3          0.614              1.914              2.819
 Vibration     4          0.619              1.899              2.627
 Vibration     5          0.644              1.822              2.021
 Vibration     6          0.675              1.726              1.586
 Vibration     7          0.678              1.716              1.554
 Vibration     8          0.695              1.665              1.393
 Vibration     9          0.715              1.609              1.245
 Vibration    10          0.750              1.513              1.039
 Vibration    11          0.820              1.333              0.759
 Vibration    12          0.830              1.310              0.729
 Vibration    13          0.880              1.196              0.599
 Vibration    14          0.924              1.100              0.508
 Vibration    15          0.946              1.055              0.469

 Optimization completed.
    -- Stationary point found.
 Normal termination of Gaussian 09 at Wed Sep 29 02:46:04 2021.
 Gaussian 09:  AM64L-G09RevA.02 11-Jun-2009

 ----------------------------------------------------------------------
 #p TD(NStates=10, Root=1) b3lyp/6-31G* volume pop=NPA density=current
 Geom=AllCheck Guess=Read
 ----------------------------------------------------------------------

 COc1cccc(c1)C(F)(F)F_conf_0
 ---------------------------
 Redundant internal coordinates taken from checkpoint file:
 C8H7F3O_6429_conf_0.chk
 Charge =  0 Multiplicity = 1

                         Standard orientation:
 ---------------------------------------------------------------------
 Center     Atomic      Atomic             Coordinates (Angstroms)
 Number     Number       Type             X           Y           Z
 ---------------------------------------------------------------------
      1          6           0       -4.008851   -0.718151    0.011628
      2          8           0       -2.654603   -1.143669   -0.006289
      3          6           0       -1.677935   -0.193377   -0.006895
      4          6           0       -1.906842    1.187212    0.008798
      5          6           0       -0.818801    2.066224    0.001857
      6          6           0        0.487325    1.591038   -0.019609
      7          6           0        0.704672    0.206891   -0.033549
      8          6           0       -0.363445   -0.682109   -0.027459
      9          6           0        2.116069   -0.315737   -0.000490
     10          9           0        2.937313    0.416380   -0.787844
     11          9           0        2.635126   -0.267956    1.249548
     12          9           0        2.198357   -1.599450   -0.412884
     13          1           0       -4.607842   -1.630293    0.008744
     14          1           0       -4.254920   -0.119502   -0.875234
     15          1           0       -4.236800   -0.137143    0.914898
     16          1           0       -2.915002    1.584885    0.023683
     17          1           0       -1.003815    3.136724    0.010044
     18          1           0        1.328324    2.275797   -0.032769
     19          1           0       -0.203441   -1.753825   -0.044126
 ---------------------------------------------------------------------

 SCF Done:  E(RB3LYP) =  -683.809141733     A.U. after    1 cycles

 Excitation energies and oscillator strengths:

 Excited State   1:      Singlet-A      5.0123 eV  247.36 nm  f=0.0368  <S**2>=0.000
      44 -> 47         0.28604
      45 -> 46         0.64309
 This state for optimization and/or second-order correction.
 Total Energy, E(TD-HF/TD-KS) =  -683.624941630
 Copying the excited state density for this state as the 1-particle RhoCI density.

 Excited State   2:      Singlet-A      5.8666 eV  211.34 nm  f=0.0697  <S**2>=0.000
      44 -> 46        -0.34788
      45 -> 47         0.60764

 Excited State   3:      Singlet-A      6.7727 eV  183.07 nm  f=0.4830  <S**2>=0.000
      43 -> 46         0.19937
      43 -> 47         0.12126
      44 -> 46         0.47797
      44 -> 47        -0.33379
      45 -> 46         0.14381
      45 -> 47         0.28215

 Excited State   4:      Singlet-A      6.9253 eV  179.03 nm  f=0.3847  <S**2>=0.000
      43 -> 46        -0.22425
      44 -> 46         0.36637
      44 -> 47         0.47647
      45 -> 46        -0.21201
      45 -> 47         0.18362

 Excited State   5:      Singlet-A      7.4206 eV  167.08 nm  f=0.0013  <S**2>=0.000
      42 -> 46         0.69328

 Excited State   6:      Singlet-A      7.5960 eV  163.22 nm  f=0.0011  <S**2>=0.000
      45 -> 48         0.68834
      45 -> 49        -0.14676

 Excited State   7:      Singlet-A      7.8275 eV  158.40 nm  f=0.2396  <S**2>=0.000
      42 -> 47        -0.24589
      43 -> 46         0.59338
      44 -> 47         0.25124
      45 -> 46        -0.11036

 Excited State   8:      Singlet-A      7.8436 eV  158.07 nm  f=0.0374  <S**2>=0.000
      42 -> 47         0.64662
      43 -> 46         0.22100
      44 -> 47         0.10082

 Excited State   9:      Singlet-A      8.0843 eV  153.36 nm  f=0.0098  <S**2>=0.000
      45 -> 48         0.14835
      45 -> 49         0.67303
      45 -> 50        -0.12528

 Excited State  10:      Singlet-A      8.1283 eV  152.53 nm  f=0.0039  <S**2>=0.000
      40 -> 46         0.20491
      41 -> 46         0.66334

 The electronic state is 1-A.
 Alpha  occ. eigenvalues --  -24.72020 -24.71739 -24.71299 -19.18858 -10.42685
 Alpha  occ. eigenvalues --  -10.26110 -10.25003 -10.21477 -10.20499 -10.20225
 Alpha  occ. eigenvalues --  -10.20065 -10.19908  -1.29427  -1.20916  -1.20394
 Alpha  occ. eigenvalues --   -1.07503  -0.86931  -0.78267  -0.76910  -0.70756
 Alpha  occ. eigenvalues --   -0.69287  -0.62601  -0.61186  -0.57244  -0.57119
 Alpha  occ. eigenvalues --   -0.56418  -0.51208  -0.49808  -0.49014  -0.47803
 Alpha  occ. eigenvalues --   -0.45095  -0.44928  -0.44275  -0.42996  -0.41431
 Alpha  occ. eigenvalues --   -0.40572  -0.40334  -0.39113  -0.38681  -0.38063
 Alpha  occ. eigenvalues --   -0.36283  -0.33707  -0.33071  -0.26677  -0.23201
 Alpha virt. eigenvalues --   -0.02234  -0.00322   0.08472   0.10101   0.12106
 Alpha virt. eigenvalues --    0.13579   0.14050   0.15180   0.15397   0.15874
 Alpha virt. eigenvalues --    0.17029   0.19252   0.22222   0.22563   0.25245

 Mulliken atomic charges:
              1
     1  C   -0.234500
     2  O   -0.432191
     3  C    0.355206
     4  C   -0.194821
     5  C   -0.165067
     6  C   -0.131000
     7  C   -0.036811
     8  C   -0.226019
     9  C    0.766332
    10  F   -0.278547
    11  F   -0.269164
    12  F   -0.275517
    13  H    0.186920
    14  H    0.181123
    15  H    0.181166
    16  H    0.126722
    17  H    0.134324
    18  H    0.159540
    19  H    0.152303
 Sum of Mulliken atomic charges =  -0.00000

 Dipole moment (field-independent basis, Debye):
    X=             -5.4683    Y=              0.9209    Z=             -0.0361  Tot=              5.5454
 Quadrupole moment (field-independent basis, Debye-Ang):
   XX=            -54.5820   YY=            -63.8294   ZZ=            -69.3721
   XY=              2.7111   XZ=             -0.2908   YZ=              0.0441

 Summary of Natural Population Analysis:

                                       Natural Population
                Natural  -----------------------------------------------
    Atom  No    Charge         Core      Valence    Rydberg      Total
 -----------------------------------------------------------------------
      C    1   -0.32878      1.99941     4.31532    0.01405     6.32878
      O    2   -0.40248      1.99975     6.39108    0.01165     8.40248
      C    3    0.33432      1.99881     3.64359    0.02328     5.66568
      C    4   -0.34587      1.99905     4.33015    0.01666     6.34587
      C    5   -0.26281      1.99915     4.24473    0.01893     6.26281
      C    6   -0.13302      1.99906     4.11784    0.01611     6.13302
      C    7   -0.21920      1.99889     4.20206    0.01825     6.21920
      C    8   -0.28330      1.99901     4.26367    0.02062     6.28330
      C    9    1.10491      1.99907     2.82506    0.07096     4.89509
      F   10   -0.37110      1.99993     7.36506    0.00611     9.37110
      F   11   -0.37171      1.99993     7.36551    0.00627     9.37171
      F   12   -0.36882      1.99993     7.36280    0.00609     9.36882
      H   13    0.23663      0.00000     0.76287    0.00050     0.76337
      H   14    0.22344      0.00000     0.77482    0.00174     0.77656
      H   15    0.22344      0.00000     0.77481    0.00174     0.77656
      H   16    0.23011      0.00000     0.76892    0.00097     0.76989
      H   17    0.23633      0.00000     0.76286    0.00081     0.76367
      H   18    0.24538      0.00000     0.75320    0.00142     0.75462
      H   19    0.25253      0.00000     0.74563    0.00184     0.74747
 =======================================================================
   * Total *    0.00000     23.99200    65.76999    0.23801    90.00000

 Normal termination of Gaussian 09 at Wed Sep 29 05:05:20 2021.
