 Gaussian 09, Revision A.02,

 -----------------------------------
 #p opt b3lyp/6-31G* scf=(xqc,tight)
 -----------------------------------

 ---------------------
 Cn1cnc2c1cccc2_conf_0
 ---------------------
 Symbolic Z-matrix:
 Charge =  0 Multiplicity = 1

 SCF Done:  E(RB3LYP) =  -419.176440829     A.U. after   15 cycles
 SCF Done:  E(RB3LYP) =  -419.179068086     A.U. after   15 cycles
 SCF Done:  E(RB3LYP) =  -419.179375395     A.U. after   11 cycles
 SCF Done:  E(RB3LYP) =  -419.179391266     A.U. after    9 cycles
 SCF Done:  E(RB3LYP) =  -419.179393101     A.U. after    8 cycles
 SCF Done:  E(RB3LYP) =  -419.179394197     A.U. after    8 cycles
 SCF Done:  E(RB3LYP) =  -419.179394695     A.U. after    7 cycles
 SCF Done:  E(RB3LYP) =  -419.179395517     A.U. after    8 cycles
 SCF Done:  E(RB3LYP) =  -419.179395960     A.U. after    7 cycles
 SCF Done:  E(RB3LYP) =  -419.179396150     A.U. after   15 cycles
 Optimization completed.
    -- Stationary point found.
 Normal termination of Gaussian 09 at Sun Oct  3 18:29:42 2021.

 ----------------------------------------------------------------------
 #p freq b3lyp/6-31G* volume NMR pop=NPA density=current Geom=AllCheck
 Guess=Read
 ----------------------------------------------------------------------

 Cn1cnc2c1cccc2_conf_0
 ---------------------
 Redundant internal coordinates taken from checkpoint file:
 C8H8N2_5ceb_conf_0.chk
 Charge =  0 Multiplicity = 1

 SCF Done:  E(RB3LYP) =  -419.179396150     A.U. after    1 cycles

  1  C    Isotropic =   158.9483   Anisotropy =    46.7617

  2  N    Isotropic =   115.3232   Anisotropy =    89.5950

  3  C    Isotropic =    55.0937   Anisotropy =    73.9056

  4  N    Isotropic =     7.7425   Anisotropy =   350.6416

  5  C    Isotropic =    51.7952   Anisotropy =   135.0291

  6  C    Isotropic =    62.5765   Anisotropy =   138.5010

  7  C    Isotropic =    87.4726   Anisotropy =   142.6098

  8  C    Isotropic =    73.3167   Anisotropy =   158.2865

  9  C    Isotropic =    74.2115   Anisotropy =   157.1511

 10  C    Isotropic =    74.0003   Anisotropy =   150.2881

 11  H    Isotropic =    28.6365   Anisotropy =     7.8496

 12  H    Isotropic =    28.6041   Anisotropy =     9.4320

 13  H    Isotropic =    28.6041   Anisotropy =     9.4344

 14  H    Isotropic =    25.0119   Anisotropy =     4.8477

 15  H    Isotropic =    25.0731   Anisotropy =     6.7939

 16  H    Isotropic =    25.0168   Anisotropy =     5.1356

 17  H    Isotropic =    25.0027   Anisotropy =     4.7998

 18  H    Isotropic =    24.6225   Anisotropy =     5.0453

  Exact polarizability: 129.541   3.219 100.691   0.002  -0.002  38.576
 Approx polarizability: 205.886   6.806 178.277   0.005  -0.004  58.934

                     1                      2                      3
                     A                      A                      A
 Frequencies --   111.2082               138.3583               233.6300
 Red. masses --     1.3478                 1.8669                 4.2452
 Frc consts  --     0.0098                 0.0211                 0.1365
 IR Inten    --     0.3857                 2.8135                 0.4332

                     4                      5                      6
                     A                      A                      A
 Frequencies --   240.2283               281.7639               436.6077
 Red. masses --     2.9816                 4.8582                 2.9752
 Frc consts  --     0.1014                 0.2272                 0.3342
 IR Inten    --     1.0910                 0.3041                 4.1425

                     7                      8                      9
                     A                      A                      A
 Frequencies --   486.4513               543.1854               585.2508
 Red. masses --     4.2736                 5.9319                 3.9908
 Frc consts  --     0.5958                 1.0312                 0.8054
 IR Inten    --     3.7272                 0.9703                 0.1375

                    10                     11                     12
                     A                      A                      A
 Frequencies --   591.4295               634.5379               733.7123
 Red. masses --     5.5898                 3.7413                 5.6787
 Frc consts  --     1.1520                 0.8875                 1.8011
 IR Inten    --     2.8640                 3.7976                 5.5813

                    13                     14                     15
                     A                      A                      A
 Frequencies --   757.7776               777.5278               794.4715
 Red. masses --     1.3529                 3.7215                 4.9573
 Frc consts  --     0.4577                 1.3256                 1.8435
 IR Inten    --    58.1914                 3.5692                 7.9092

                    16                     17                     18
                     A                      A                      A
 Frequencies --   849.0940               864.8994               896.9950
 Red. masses --     1.3469                 1.5285                 6.3651
 Frc consts  --     0.5721                 0.6737                 3.0174
 IR Inten    --     3.0757                 2.9649                 4.0770

                    19                     20                     21
                     A                      A                      A
 Frequencies --   930.0764               974.0495              1036.3317
 Red. masses --     1.3458                 1.2372                 2.0189
 Frc consts  --     0.6859                 0.6916                 1.2775
 IR Inten    --     2.0896                 0.0798                 4.8740

                    22                     23                     24
                     A                      A                      A
 Frequencies --  1068.1586              1117.8662              1158.4007
 Red. masses --     2.0308                 2.8420                 1.5411
 Frc consts  --     1.3652                 2.0924                 1.2185
 IR Inten    --    22.8204                 2.1036                 6.3310

                    25                     26                     27
                     A                      A                      A
 Frequencies --  1161.1140              1184.8522              1233.8807
 Red. masses --     1.2968                 1.2082                 1.9230
 Frc consts  --     1.0301                 0.9994                 1.7250
 IR Inten    --     0.1386                 3.7316                10.4877

                    28                     29                     30
                     A                      A                      A
 Frequencies --  1289.1280              1323.4480              1365.4513
 Red. masses --     1.6061                 2.3501                 3.2487
 Frc consts  --     1.5726                 2.4252                 3.5687
 IR Inten    --    29.9780                33.4927                31.5900

                    31                     32                     33
                     A                      A                      A
 Frequencies --  1399.0640              1417.7484              1477.1607
 Red. masses --     5.8036                 3.5333                 1.3369
 Frc consts  --     6.6930                 4.1844                 1.7187
 IR Inten    --     2.1358                 9.6020                27.9014

                    34                     35                     36
                     A                      A                      A
 Frequencies --  1506.1907              1509.3353              1528.4357
 Red. masses --     2.4049                 1.0412                 2.4545
 Frc consts  --     3.2145                 1.3975                 3.3784
 IR Inten    --    28.7959                 7.7660                 0.2873

                    37                     38                     39
                     A                      A                      A
 Frequencies --  1547.7903              1554.7188              1636.9760
 Red. masses --     1.3397                 2.9717                 6.2751
 Frc consts  --     1.8909                 4.2321                 9.9073
 IR Inten    --    30.1689                62.3997                 2.0697

                    40                     41                     42
                     A                      A                      A
 Frequencies --  1674.4750              3051.9535              3109.6884
 Red. masses --     6.7283                 1.0342                 1.1061
 Frc consts  --    11.1151                 5.6753                 6.3019
 IR Inten    --    12.1222                51.2924                21.1050

                    43                     44                     45
                     A                      A                      A
 Frequencies --  3151.9422              3184.8368              3195.7506
 Red. masses --     1.1021                 1.0854                 1.0895
 Frc consts  --     6.4508                 6.4864                 6.5557
 IR Inten    --     8.8871                 0.3870                14.4774

                    46                     47                     48
                     A                      A                      A
 Frequencies --  3206.9481              3217.3669              3245.7492
 Red. masses --     1.0944                 1.0954                 1.0957
 Frc consts  --     6.6317                 6.6805                 6.8009
 IR Inten    --    26.6796                14.9713                 4.4498

 - Thermochemistry -
 -------------------
 Temperature   298.150 Kelvin.  Pressure   1.00000 Atm.
 Atom     1 has atomic number  6 and mass  12.00000

 Molecular mass:   132.06875 amu.
 Principal axes and moments of inertia in atomic units:
                           1         2         3
     Eigenvalues --   667.829581377.015892033.41692
           X            0.99946  -0.03276  -0.00000
           Y            0.03276   0.99946   0.00000
           Z            0.00000  -0.00000   1.00000
 This molecule is an asymmetric top.
 Rotational symmetry number  1.
 Warning -- assumption of classical behavior for rotation
           may cause significant error
 Rotational temperatures (Kelvin)      0.12969     0.06290     0.04260
 Rotational constants (GHZ):           2.70240     1.31062     0.88754
 Zero-point vibrational energy     385293.3 (Joules/Mol)
                                   92.08732 (Kcal/Mol)
 Warning -- explicit consideration of  10 degrees of freedom as
           vibrations may cause significant error
 Vibrational temperatures:    160.00   199.07   336.14   345.63   405.39
          (Kelvin)            628.18   699.89   781.52   842.04   850.93
                              912.96  1055.65  1090.27  1118.69  1143.07
                             1221.66  1244.40  1290.57  1338.17  1401.44
                             1491.05  1536.84  1608.36  1666.68  1670.58
                             1704.74  1775.28  1854.77  1904.14  1964.58
                             2012.94  2039.82  2125.30  2167.07  2171.59
                             2199.08  2226.92  2236.89  2355.24  2409.19
                             4391.07  4474.14  4534.94  4582.26  4597.97
                             4614.08  4629.07  4669.90

 Zero-point correction=                           0.146750 (Hartree/Particle)
 Thermal correction to Energy=                    0.154452
 Thermal correction to Enthalpy=                  0.155396
 Thermal correction to Gibbs Free Energy=         0.114316
 Sum of electronic and zero-point Energies=           -419.032646
 Sum of electronic and thermal Energies=              -419.024944
 Sum of electronic and thermal Enthalpies=            -419.024000
 Sum of electronic and thermal Free Energies=         -419.065080

                     E (Thermal)             CV                S
                      KCal/Mol        Cal/Mol-Kelvin    Cal/Mol-Kelvin
 Total                   96.920             30.220             86.460
 Electronic               0.000              0.000              0.000
 Translational            0.889              2.981             40.547
 Rotational               0.889              2.981             29.016
 Vibrational             95.143             24.259             16.897
 Vibration     1          0.607              1.940              3.248
 Vibration     2          0.614              1.915              2.826
 Vibration     3          0.654              1.789              1.851
 Vibration     4          0.657              1.779              1.801
 Vibration     5          0.681              1.707              1.523
 Vibration     6          0.797              1.390              0.837
 Vibration     7          0.842              1.280              0.693
 Vibration     8          0.898              1.155              0.558
 Vibration     9          0.942              1.063              0.476
 Vibration    10          0.949              1.050              0.465

 Optimization completed.
    -- Stationary point found.
 Normal termination of Gaussian 09 at Sun Oct  3 19:10:04 2021.
 Gaussian 09:  AM64L-G09RevA.02 11-Jun-2009

 ----------------------------------------------------------------------
 #p TD(NStates=10, Root=1) b3lyp/6-31G* volume pop=NPA density=current
 Geom=AllCheck Guess=Read
 ----------------------------------------------------------------------

 Cn1cnc2c1cccc2_conf_0
 ---------------------
 Redundant internal coordinates taken from checkpoint file:
 C8H8N2_5ceb_conf_0.chk
 Charge =  0 Multiplicity = 1

                         Standard orientation:
 ---------------------------------------------------------------------
 Center     Atomic      Atomic             Coordinates (Angstroms)
 Number     Number       Type             X           Y           Z
 ---------------------------------------------------------------------
      1          6           0        2.530904   -1.246720   -0.000139
      2          7           0        1.531884   -0.197746    0.000123
      3          6           0        1.751271    1.163021    0.000048
      4          7           0        0.662151    1.886920    0.000014
      5          6           0       -0.369228    0.955774   -0.000002
      6          6           0        0.155625   -0.360135    0.000062
      7          6           0       -0.659199   -1.494941    0.000088
      8          6           0       -2.034803   -1.277013    0.000015
      9          6           0       -2.574768    0.025296   -0.000060
     10          6           0       -1.755991    1.150157   -0.000067
     11          1           0        3.523927   -0.791208   -0.000803
     12          1           0        2.434128   -1.877674   -0.890933
     13          1           0        2.435120   -1.877271    0.891052
     14          1           0        2.761302    1.556605    0.000075
     15          1           0       -0.248140   -2.500569    0.000177
     16          1           0       -2.707015   -2.130702    0.000031
     17          1           0       -3.654274    0.148551   -0.000111
     18          1           0       -2.166171    2.155417   -0.000111
 ---------------------------------------------------------------------

 SCF Done:  E(RB3LYP) =  -419.179396150     A.U. after    1 cycles

 Excitation energies and oscillator strengths:

 Excited State   1:      Singlet-A      5.0449 eV  245.76 nm  f=0.0363  <S**2>=0.000
      34 -> 36         0.55305
      34 -> 37        -0.10004
      35 -> 36         0.25602
      35 -> 37         0.33536
 This state for optimization and/or second-order correction.
 Total Energy, E(TD-HF/TD-KS) =  -418.993998123
 Copying the excited state density for this state as the 1-particle RhoCI density.

 Excited State   2:      Singlet-A      5.2660 eV  235.44 nm  f=0.0879  <S**2>=0.000
      34 -> 36        -0.22054
      34 -> 37        -0.20833
      35 -> 36         0.60323
      35 -> 37        -0.16308

 Excited State   3:      Singlet-A      5.7477 eV  215.71 nm  f=0.0013  <S**2>=0.000
      33 -> 36         0.70100

 Excited State   4:      Singlet-A      6.4227 eV  193.04 nm  f=0.2864  <S**2>=0.000
      32 -> 36         0.25112
      34 -> 36        -0.29425
      34 -> 37        -0.27316
      34 -> 38         0.15543
      35 -> 37         0.46467
      35 -> 38        -0.16644

 Excited State   5:      Singlet-A      6.6331 eV  186.92 nm  f=0.4346  <S**2>=0.000
      34 -> 36        -0.11099
      34 -> 37         0.56365
      34 -> 38        -0.13199
      35 -> 36         0.19442
      35 -> 37         0.23412
      35 -> 38        -0.20182

 Excited State   6:      Singlet-A      6.8149 eV  181.93 nm  f=0.2285  <S**2>=0.000
      32 -> 36         0.47384
      34 -> 36         0.18495
      34 -> 38        -0.12965
      35 -> 37        -0.25398
      35 -> 38        -0.38363

 Excited State   7:      Singlet-A      6.8490 eV  181.03 nm  f=0.0003  <S**2>=0.000
      33 -> 37         0.70345

 Excited State   8:      Singlet-A      7.0341 eV  176.26 nm  f=0.0248  <S**2>=0.000
      32 -> 37         0.23140
      34 -> 37         0.13835
      34 -> 38         0.61495
      35 -> 37        -0.11038
      35 -> 38        -0.12951

 Excited State   9:      Singlet-A      7.3404 eV  168.91 nm  f=0.0017  <S**2>=0.000
      34 -> 39         0.10478
      35 -> 39         0.68810

 Excited State  10:      Singlet-A      7.3445 eV  168.81 nm  f=0.0908  <S**2>=0.000
      31 -> 36         0.10021
      32 -> 36         0.43700
      34 -> 37         0.12478
      35 -> 36         0.13586
      35 -> 38         0.48797

 The electronic state is 1-A.
 Alpha  occ. eigenvalues --  -14.39237 -14.31064 -10.24752 -10.24356 -10.21726
 Alpha  occ. eigenvalues --  -10.20168 -10.19170 -10.18542 -10.18197 -10.18060
 Alpha  occ. eigenvalues --   -1.01614  -0.89036  -0.83656  -0.75200  -0.73118
 Alpha  occ. eigenvalues --   -0.71623  -0.62704  -0.59580  -0.57714  -0.51949
 Alpha  occ. eigenvalues --   -0.50136  -0.47914  -0.47649  -0.44159  -0.43117
 Alpha  occ. eigenvalues --   -0.41763  -0.40765  -0.40611  -0.36054  -0.35074
 Alpha  occ. eigenvalues --   -0.33260  -0.29229  -0.26626  -0.22371  -0.21900
 Alpha virt. eigenvalues --   -0.01082   0.02417   0.06023   0.08120   0.10825
 Alpha virt. eigenvalues --    0.11890   0.14507   0.14952   0.15091   0.15586
 Alpha virt. eigenvalues --    0.18635   0.18676   0.18949   0.23825   0.25553

 Mulliken atomic charges:
              1
     1  C   -0.327895
     2  N   -0.469795
     3  C    0.180353
     4  N   -0.482778
     5  C    0.224417
     6  C    0.319764
     7  C   -0.175808
     8  C   -0.170013
     9  C   -0.125823
    10  C   -0.187642
    11  H    0.177831
    12  H    0.182589
    13  H    0.182593
    14  H    0.150616
    15  H    0.122659
    16  H    0.122250
    17  H    0.136806
    18  H    0.139874
 Sum of Mulliken atomic charges =  -0.00000

 Dipole moment (field-independent basis, Debye):
    X=              2.1311    Y=             -2.9136    Z=             -0.0002  Tot=              3.6098
 Quadrupole moment (field-independent basis, Debye-Ang):
   XX=            -45.2486   YY=            -60.2675   ZZ=            -60.7089
   XY=             -4.0495   XZ=             -0.0003   YZ=             -0.0000

 Summary of Natural Population Analysis:

                                       Natural Population
                Natural  -----------------------------------------------
    Atom  No    Charge         Core      Valence    Rydberg      Total
 -----------------------------------------------------------------------
      C    1   -0.46877      1.99947     4.45765    0.01166     6.46877
      N    2   -0.36556      1.99928     5.35401    0.01227     7.36556
      C    3    0.16526      1.99937     3.80514    0.03023     5.83474
      N    4   -0.46340      1.99948     5.44164    0.02228     7.46340
      C    5    0.12257      1.99900     3.85472    0.02371     5.87743
      C    6    0.13924      1.99898     3.84168    0.02010     5.86076
      C    7   -0.29200      1.99903     4.27586    0.01710     6.29200
      C    8   -0.28396      1.99917     4.26697    0.01782     6.28396
      C    9   -0.16761      1.99915     4.15251    0.01595     6.16761
      C   10   -0.26031      1.99905     4.24341    0.01785     6.26031
      H   11    0.24241      0.00000     0.75687    0.00072     0.75759
      H   12    0.23892      0.00000     0.75892    0.00216     0.76108
      H   13    0.23892      0.00000     0.75893    0.00215     0.76108
      H   14    0.21778      0.00000     0.78154    0.00068     0.78222
      H   15    0.23130      0.00000     0.76768    0.00101     0.76870
      H   16    0.23152      0.00000     0.76772    0.00076     0.76848
      H   17    0.23204      0.00000     0.76715    0.00081     0.76796
      H   18    0.24164      0.00000     0.75715    0.00121     0.75836
 =======================================================================
   * Total *    0.00000     19.99198    49.80955    0.19848    70.00000

 Normal termination of Gaussian 09 at Sun Oct  3 22:27:57 2021.
