 Gaussian 09, Revision A.02,

 -----------------------------------
 #p opt b3lyp/6-31G* scf=(xqc,tight)
 -----------------------------------

 ---------------------
 CC(=O)c1ccccc1_conf_0
 ---------------------
 Symbolic Z-matrix:
 Charge =  0 Multiplicity = 1

 SCF Done:  E(RB3LYP) =  -384.894517225     A.U. after   15 cycles
 SCF Done:  E(RB3LYP) =  -384.895700019     A.U. after   13 cycles
 SCF Done:  E(RB3LYP) =  -384.895738853     A.U. after   15 cycles
 SCF Done:  E(RB3LYP) =  -384.895627137     A.U. after   13 cycles
 SCF Done:  E(RB3LYP) =  -384.895873376     A.U. after   12 cycles
 SCF Done:  E(RB3LYP) =  -384.895951502     A.U. after   11 cycles
 SCF Done:  E(RB3LYP) =  -384.895984864     A.U. after   12 cycles
 SCF Done:  E(RB3LYP) =  -384.895994108     A.U. after   10 cycles
 SCF Done:  E(RB3LYP) =  -384.895995186     A.U. after    8 cycles
 SCF Done:  E(RB3LYP) =  -384.895995221     A.U. after    7 cycles
 Optimization completed.
    -- Stationary point found.
 Normal termination of Gaussian 09 at Mon Oct  4 09:29:01 2021.

 ----------------------------------------------------------------------
 #p freq b3lyp/6-31G* volume NMR pop=NPA density=current Geom=AllCheck
 Guess=Read
 ----------------------------------------------------------------------

 CC(=O)c1ccccc1_conf_0
 ---------------------
 Redundant internal coordinates taken from checkpoint file:
 C8H8O_e63c_conf_0.chk
 Charge =  0 Multiplicity = 1

 SCF Done:  E(RB3LYP) =  -384.895995221     A.U. after    1 cycles

  1  C    Isotropic =   163.8306   Anisotropy =    38.7581

  2  C    Isotropic =     3.3199   Anisotropy =   151.9466

  3  O    Isotropic =  -268.1581   Anisotropy =   938.3192

  4  C    Isotropic =    61.0297   Anisotropy =   161.8603

  5  C    Isotropic =    66.6623   Anisotropy =   181.7590

  6  C    Isotropic =    67.8455   Anisotropy =   166.1739

  7  C    Isotropic =    64.0558   Anisotropy =   173.2958

  8  C    Isotropic =    68.5861   Anisotropy =   164.1584

  9  C    Isotropic =    67.1239   Anisotropy =   165.5422

 10  H    Isotropic =    30.2726   Anisotropy =     6.2428

 11  H    Isotropic =    29.6611   Anisotropy =     4.3802

 12  H    Isotropic =    29.6611   Anisotropy =     4.3802

 13  H    Isotropic =    23.9697   Anisotropy =     6.3877

 14  H    Isotropic =    24.8077   Anisotropy =     4.8592

 15  H    Isotropic =    24.8180   Anisotropy =     4.8207

 16  H    Isotropic =    24.9216   Anisotropy =     4.9817

 17  H    Isotropic =    24.5512   Anisotropy =     7.5646

  Exact polarizability: 114.638  -1.309  91.558   0.000  -0.000  35.581
 Approx polarizability: 174.839 -12.450 161.318   0.000  -0.001  53.734

                     1                      2                      3
                     A                      A                      A
 Frequencies --    68.5180               155.0511               172.5335
 Red. masses --     4.0290                 4.3614                 1.0382
 Frc consts  --     0.0111                 0.0618                 0.0182
 IR Inten    --     3.2438                 0.0472                 0.2450

                     4                      5                      6
                     A                      A                      A
 Frequencies --   219.7444               366.1820               415.5447
 Red. masses --     3.8882                 4.4991                 2.9690
 Frc consts  --     0.1106                 0.3554                 0.3021
 IR Inten    --     4.8047                 0.7940                 0.0040

                     7                      8                      9
                     A                      A                      A
 Frequencies --   432.8136               466.3208               595.4180
 Red. masses --     3.4024                 4.5536                 4.3990
 Frc consts  --     0.3755                 0.5834                 0.9189
 IR Inten    --     0.0068                 0.7258                25.6663

                    10                     11                     12
                     A                      A                      A
 Frequencies --   604.9834               632.3420               707.2427
 Red. masses --     2.5005                 6.4021                 1.9067
 Frc consts  --     0.5392                 1.5083                 0.5619
 IR Inten    --     8.7616                 1.0528                26.1971

                    13                     14                     15
                     A                      A                      A
 Frequencies --   743.6409               779.4644               866.6411
 Red. masses --     5.0790                 1.6716                 1.2482
 Frc consts  --     1.6548                 0.5984                 0.5524
 IR Inten    --     0.5503                28.9521                 0.1571

                    16                     17                     18
                     A                      A                      A
 Frequencies --   945.4515               966.5677               984.2434
 Red. masses --     1.3470                 2.2386                 1.3434
 Frc consts  --     0.7094                 1.2322                 0.7668
 IR Inten    --     2.0710                30.7771                 0.3429

                    19                     20                     21
                     A                      A                      A
 Frequencies --  1009.1358              1018.9599              1053.0944
 Red. masses --     1.2791                 6.1658                 2.4987
 Frc consts  --     0.7675                 3.7719                 1.6327
 IR Inten    --     0.3971                 0.8376                 3.4270

                    22                     23                     24
                     A                      A                      A
 Frequencies --  1058.2547              1100.5086              1116.1600
 Red. masses --     1.8551                 2.1434                 1.5402
 Frc consts  --     1.2240                 1.5295                 1.1305
 IR Inten    --     1.4337                 0.9260                 5.1576

                    25                     26                     27
                     A                      A                      A
 Frequencies --  1194.0561              1211.3187              1289.8347
 Red. masses --     1.1057                 1.1455                 3.6030
 Frc consts  --     0.9288                 0.9903                 3.5317
 IR Inten    --     0.6185                14.9664               184.0676

                    28                     29                     30
                     A                      A                      A
 Frequencies --  1349.9426              1368.5446              1413.3275
 Red. masses --     1.7934                 3.1848                 1.3165
 Frc consts  --     1.9255                 3.5144                 1.5494
 IR Inten    --     6.5994                 2.8501                42.6796

                    31                     32                     33
                     A                      A                      A
 Frequencies --  1495.5403              1500.2020              1509.0729
 Red. masses --     2.2345                 1.0604                 1.0481
 Frc consts  --     2.9446                 1.4061                 1.4063
 IR Inten    --    18.2839                 8.9039                 9.4326

                    34                     35                     36
                     A                      A                      A
 Frequencies --  1540.2947              1639.0835              1659.2067
 Red. masses --     2.1757                 5.4180                 5.4693
 Frc consts  --     3.0412                 8.5762                 8.8711
 IR Inten    --     0.9165                 7.8447                20.3739

                    37                     38                     39
                     A                      A                      A
 Frequencies --  1778.9441              3054.0710              3113.5869
 Red. masses --    10.7192                 1.0383                 1.1000
 Frc consts  --    19.9866                 5.7058                 6.2828
 IR Inten    --   160.8103                 2.8369                10.0246

                    40                     41                     42
                     A                      A                      A
 Frequencies --  3169.9190              3185.1937              3195.2871
 Red. masses --     1.1013                 1.0854                 1.0889
 Frc consts  --     6.5200                 6.4877                 6.5500
 IR Inten    --    11.9130                 0.0975                 9.9466

                    43                     44                     45
                     A                      A                      A
 Frequencies --  3205.4039              3214.2246              3226.8622
 Red. masses --     1.0926                 1.0955                 1.0928
 Frc consts  --     6.6142                 6.6683                 6.7041
 IR Inten    --    27.5218                15.0337                 5.2724

 - Thermochemistry -
 -------------------
 Temperature   298.150 Kelvin.  Pressure   1.00000 Atm.
 Atom     1 has atomic number  6 and mass  12.00000

 Molecular mass:   120.05751 amu.
 Principal axes and moments of inertia in atomic units:
                           1         2         3
     Eigenvalues --   490.342961490.705981969.81425
           X            0.99932   0.03691   0.00000
           Y           -0.03691   0.99932  -0.00000
           Z           -0.00000   0.00000   1.00000
 This molecule is an asymmetric top.
 Rotational symmetry number  1.
 Warning -- assumption of classical behavior for rotation
           may cause significant error
 Rotational temperatures (Kelvin)      0.17664     0.05810     0.04397
 Rotational constants (GHZ):           3.68057     1.21066     0.91620
 Zero-point vibrational energy     363621.3 (Joules/Mol)
                                   86.90757 (Kcal/Mol)
 Warning -- explicit consideration of  10 degrees of freedom as
           vibrations may cause significant error
 Vibrational temperatures:     98.58   223.08   248.24   316.16   526.85
          (Kelvin)            597.88   622.72   670.93   856.67   870.44
                              909.80  1017.56  1069.93  1121.47  1246.90
                             1360.29  1390.67  1416.10  1451.92  1466.05
                             1515.17  1522.59  1583.38  1605.90  1717.98
                             1742.82  1855.78  1942.26  1969.03  2033.46
                             2151.75  2158.45  2171.22  2216.14  2358.27
                             2387.23  2559.50  4394.12  4479.75  4560.80
                             4582.78  4597.30  4611.86  4624.55  4642.73

 Zero-point correction=                           0.138496 (Hartree/Particle)
 Thermal correction to Energy=                    0.146276
 Thermal correction to Enthalpy=                  0.147220
 Thermal correction to Gibbs Free Energy=         0.105870
 Sum of electronic and zero-point Energies=           -384.757499
 Sum of electronic and thermal Energies=              -384.749719
 Sum of electronic and thermal Enthalpies=            -384.748775
 Sum of electronic and thermal Free Energies=         -384.790126

                     E (Thermal)             CV                S
                      KCal/Mol        Cal/Mol-Kelvin    Cal/Mol-Kelvin
 Total                   91.790             29.510             87.030
 Electronic               0.000              0.000              0.000
 Translational            0.889              2.981             40.263
 Rotational               0.889              2.981             28.756
 Vibrational             90.012             23.548             18.011
 Vibration     1          0.598              1.969              4.195
 Vibration     2          0.620              1.897              2.609
 Vibration     3          0.626              1.876              2.408
 Vibration     4          0.647              1.811              1.961
 Vibration     5          0.739              1.542              1.096
 Vibration     6          0.779              1.436              0.907
 Vibration     7          0.794              1.399              0.850
 Vibration     8          0.824              1.325              0.748
 Vibration     9          0.953              1.042              0.458
 Vibration    10          0.964              1.021              0.441

 Optimization completed.
    -- Stationary point found.
 Normal termination of Gaussian 09 at Mon Oct  4 10:21:40 2021.
 Gaussian 09:  AM64L-G09RevA.02 11-Jun-2009

 ----------------------------------------------------------------------
 #p TD(NStates=10, Root=1) b3lyp/6-31G* volume pop=NPA density=current
 Geom=AllCheck Guess=Read
 ----------------------------------------------------------------------

 CC(=O)c1ccccc1_conf_0
 ---------------------
 Redundant internal coordinates taken from checkpoint file:
 C8H8O_e63c_conf_0.chk
 Charge =  0 Multiplicity = 1

                         Standard orientation:
 ---------------------------------------------------------------------
 Center     Atomic      Atomic             Coordinates (Angstroms)
 Number     Number       Type             X           Y           Z
 ---------------------------------------------------------------------
      1          6           0        2.562098    1.047393    0.000028
      2          6           0        1.697714   -0.203537   -0.000002
      3          8           0        2.212637   -1.311497   -0.000049
      4          6           0        0.205222   -0.053885    0.000017
      5          6           0       -0.577165   -1.219695    0.000028
      6          6           0       -1.965911   -1.138281    0.000019
      7          6           0       -2.592934    0.111728   -0.000011
      8          6           0       -1.825007    1.277503   -0.000019
      9          6           0       -0.432517    1.195828   -0.000007
     10          1           0        3.610958    0.746226    0.000003
     11          1           0        2.362248    1.665559    0.883441
     12          1           0        2.362219    1.665584   -0.883365
     13          1           0       -0.067906   -2.177905    0.000036
     14          1           0       -2.562928   -2.046256    0.000040
     15          1           0       -3.677864    0.176314   -0.000038
     16          1           0       -2.309842    2.249926   -0.000047
     17          1           0        0.153021    2.110193    0.000003
 ---------------------------------------------------------------------

 SCF Done:  E(RB3LYP) =  -384.895995221     A.U. after    1 cycles

 Excitation energies and oscillator strengths:

 Excited State   1:      Singlet-A      3.7422 eV  331.31 nm  f=0.0000  <S**2>=0.000
      32 -> 33         0.69497
      32 -> 35        -0.12581
 This state for optimization and/or second-order correction.
 Total Energy, E(TD-HF/TD-KS) =  -384.758471933
 Copying the excited state density for this state as the 1-particle RhoCI density.

 Excited State   2:      Singlet-A      4.8298 eV  256.71 nm  f=0.0176  <S**2>=0.000
      30 -> 33         0.48315
      30 -> 34        -0.17217
      31 -> 33         0.43750
      31 -> 34         0.21287

 Excited State   3:      Singlet-A      5.3168 eV  233.19 nm  f=0.2307  <S**2>=0.000
      30 -> 33        -0.44293
      31 -> 33         0.51668
      31 -> 34        -0.13814

 Excited State   4:      Singlet-A      5.6187 eV  220.66 nm  f=0.0000  <S**2>=0.000
      32 -> 34         0.70620

 Excited State   5:      Singlet-A      6.3811 eV  194.30 nm  f=0.1017  <S**2>=0.000
      30 -> 33        -0.21203
      30 -> 34        -0.36301
      30 -> 35         0.24686
      31 -> 33        -0.13005
      31 -> 34         0.44995
      31 -> 35         0.20022

 Excited State   6:      Singlet-A      6.5670 eV  188.80 nm  f=0.0011  <S**2>=0.000
      27 -> 33        -0.10074
      32 -> 33         0.12729
      32 -> 35         0.67871

 Excited State   7:      Singlet-A      6.7803 eV  182.86 nm  f=0.3390  <S**2>=0.000
      30 -> 34         0.49468
      30 -> 35         0.14413
      31 -> 34         0.40179
      31 -> 35        -0.21131

 Excited State   8:      Singlet-A      6.7921 eV  182.54 nm  f=0.0001  <S**2>=0.000
      29 -> 33         0.69715

 Excited State   9:      Singlet-A      7.1510 eV  173.38 nm  f=0.0003  <S**2>=0.000
      27 -> 33         0.69448
      32 -> 35         0.10317

 Excited State  10:      Singlet-A      7.4135 eV  167.24 nm  f=0.0744  <S**2>=0.000
      28 -> 33         0.53354
      30 -> 34        -0.11233
      30 -> 35         0.14261
      31 -> 35        -0.39999

 The electronic state is 1-A.
 Alpha  occ. eigenvalues --  -19.13400 -10.27534 -10.20450 -10.20357 -10.20129
 Alpha  occ. eigenvalues --  -10.20061 -10.19853 -10.19660 -10.18929  -1.03342
 Alpha  occ. eigenvalues --   -0.86251  -0.77334  -0.75390  -0.73067  -0.63029
 Alpha  occ. eigenvalues --   -0.61067  -0.55345  -0.51268  -0.46677  -0.45867
 Alpha  occ. eigenvalues --   -0.44933  -0.44250  -0.42939  -0.41230  -0.39238
 Alpha  occ. eigenvalues --   -0.37923  -0.36072  -0.35080  -0.34880  -0.26110
 Alpha  occ. eigenvalues --   -0.25754  -0.24707
 Alpha virt. eigenvalues --   -0.05415  -0.00858   0.04081   0.08534   0.11207
 Alpha virt. eigenvalues --    0.14223   0.15319   0.15851   0.16027   0.17880
 Alpha virt. eigenvalues --    0.18486   0.19364   0.22185   0.26781   0.28969

 Mulliken atomic charges:
              1
     1  C   -0.514589
     2  C    0.310652
     3  O   -0.302832
     4  C    0.108808
     5  C   -0.190776
     6  C   -0.129327
     7  C   -0.148347
     8  C   -0.128823
     9  C   -0.205463
    10  H    0.184606
    11  H    0.197704
    12  H    0.197703
    13  H    0.135895
    14  H    0.126673
    15  H    0.119055
    16  H    0.125372
    17  H    0.113690
 Sum of Mulliken atomic charges =  -0.00000

 Dipole moment (field-independent basis, Debye):
    X=              1.3258    Y=              1.6731    Z=              0.0000  Tot=              2.1347
 Quadrupole moment (field-independent basis, Debye-Ang):
   XX=            -46.6901   YY=            -49.2100   ZZ=            -55.4021
   XY=              4.7725   XZ=              0.0002   YZ=             -0.0001

 Summary of Natural Population Analysis:

                                       Natural Population
                Natural  -----------------------------------------------
    Atom  No    Charge         Core      Valence    Rydberg      Total
 -----------------------------------------------------------------------
      C    1   -0.70855      1.99932     4.70246    0.00676     6.70855
      C    2    0.37514      1.99929     3.59304    0.03253     5.62486
      O    3   -0.25376      1.99981     6.23583    0.01812     8.25376
      C    4   -0.15722      1.99889     4.14338    0.01495     6.15722
      C    5   -0.23192      1.99905     4.21856    0.01432     6.23192
      C    6   -0.22843      1.99910     4.21541    0.01392     6.22843
      C    7   -0.26974      1.99910     4.25604    0.01460     6.26974
      C    8   -0.22800      1.99910     4.21461    0.01429     6.22800
      C    9   -0.24614      1.99904     4.23411    0.01299     6.24614
      H   10    0.25801      0.00000     0.74085    0.00114     0.74199
      H   11    0.26161      0.00000     0.73718    0.00121     0.73839
      H   12    0.26161      0.00000     0.73718    0.00121     0.73839
      H   13    0.23742      0.00000     0.76175    0.00083     0.76258
      H   14    0.23638      0.00000     0.76278    0.00083     0.76362
      H   15    0.23131      0.00000     0.76788    0.00081     0.76869
      H   16    0.23559      0.00000     0.76359    0.00082     0.76441
      H   17    0.22668      0.00000     0.77230    0.00101     0.77332
 =======================================================================
   * Total *   -0.00000     17.99270    45.85697    0.15034    64.00000

 Normal termination of Gaussian 09 at Mon Oct  4 12:12:34 2021.
