 Gaussian 09, Revision A.02,

 -----------------------------------
 #p opt b3lyp/6-31G* scf=(xqc,tight)
 -----------------------------------

 -------------------------
 Br[Mg]c1c(C)cccc1C_conf_0
 -------------------------
 Symbolic Z-matrix:
 Charge =  0 Multiplicity = 1

 SCF Done:  E(RB3LYP) =  -3082.13723616     A.U. after   14 cycles
 SCF Done:  E(RB3LYP) =  -3082.14833378     A.U. after   12 cycles
 SCF Done:  E(RB3LYP) =  -3082.15076156     A.U. after   13 cycles
 SCF Done:  E(RB3LYP) =  -3082.14944886     A.U. after   14 cycles
 SCF Done:  E(RB3LYP) =  -3082.15169034     A.U. after   14 cycles
 SCF Done:  E(RB3LYP) =  -3082.15201322     A.U. after   10 cycles
 SCF Done:  E(RB3LYP) =  -3082.15203864     A.U. after    9 cycles
 SCF Done:  E(RB3LYP) =  -3082.15204196     A.U. after    8 cycles
 SCF Done:  E(RB3LYP) =  -3082.15204550     A.U. after   14 cycles
 SCF Done:  E(RB3LYP) =  -3082.15204880     A.U. after    8 cycles
 SCF Done:  E(RB3LYP) =  -3082.15204938     A.U. after    7 cycles
 Optimization completed.
    -- Stationary point found.
 Normal termination of Gaussian 09 at Mon Oct  4 22:03:23 2021.

 ----------------------------------------------------------------------
 #p freq b3lyp/6-31G* volume NMR pop=NPA density=current Geom=AllCheck
 Guess=Read
 ----------------------------------------------------------------------

 Br[Mg]c1c(C)cccc1C_conf_0
 -------------------------
 Redundant internal coordinates taken from checkpoint file:
 C8H9BrMg_a67b_conf_0.chk
 Charge =  0 Multiplicity = 1

 SCF Done:  E(RB3LYP) =  -3082.15204938     A.U. after    1 cycles

  1  Br   Isotropic =  2920.8838   Anisotropy =   277.4189

  2  Mg   Isotropic =   512.6547   Anisotropy =   285.2008

  3  C    Isotropic =    44.4899   Anisotropy =   146.2419

  4  C    Isotropic =    49.3805   Anisotropy =   178.7349

  5  C    Isotropic =   156.0495   Anisotropy =    46.7065

  6  C    Isotropic =    72.2630   Anisotropy =   151.3689

  7  C    Isotropic =    67.2809   Anisotropy =   161.0668

  8  C    Isotropic =    70.5590   Anisotropy =   143.6592

  9  C    Isotropic =    50.1025   Anisotropy =   177.0270

 10  C    Isotropic =   160.8742   Anisotropy =    47.3096

 11  H    Isotropic =    31.3109   Anisotropy =     6.4496

 12  H    Isotropic =    29.2403   Anisotropy =     7.2955

 13  H    Isotropic =    29.2400   Anisotropy =     7.2957

 14  H    Isotropic =    25.3562   Anisotropy =     6.9635

 15  H    Isotropic =    25.1754   Anisotropy =     4.6114

 16  H    Isotropic =    25.4341   Anisotropy =     6.5525

 17  H    Isotropic =    30.1689   Anisotropy =     7.6432

 18  H    Isotropic =    29.8080   Anisotropy =     5.6953

 19  H    Isotropic =    29.8107   Anisotropy =     5.6888

  Exact polarizability: 170.161   1.176 130.596   0.014  -0.001  69.319
 Approx polarizability: 244.176   2.007 200.946   0.024   0.000 105.795

 ******    1 imaginary frequencies (negative Signs) ******

                     1                      2                      3
                     A                      A                      A
 Frequencies --   -23.2419                27.9763                38.1651
 Red. masses --     1.1307                 1.1698                 5.2760
 Frc consts  --     0.0004                 0.0005                 0.0045
 IR Inten    --     0.7855                 0.5766                 1.1221

                     4                      5                      6
                     A                      A                      A
 Frequencies --    55.0801               141.8460               147.3649
 Red. masses --     2.7323                 4.9892                11.5112
 Frc consts  --     0.0049                 0.0591                 0.1473
 IR Inten    --     0.6572                10.0834                34.8433

                     7                      8                      9
                     A                      A                      A
 Frequencies --   164.8560               211.6760               248.4936
 Red. masses --     8.7881                 2.8505                 4.0248
 Frc consts  --     0.1407                 0.0753                 0.1464
 IR Inten    --     0.2569                 0.0115                31.2213

                    10                     11                     12
                     A                      A                      A
 Frequencies --   306.0385               435.2059               471.7942
 Red. masses --     2.8214                 2.6025                10.6153
 Frc consts  --     0.1557                 0.2904                 1.3922
 IR Inten    --     1.8981                 3.1614                83.8934

                    13                     14                     15
                     A                      A                      A
 Frequencies --   481.0694               534.9208               538.1239
 Red. masses --     3.9285                 5.4296                 3.0558
 Frc consts  --     0.5357                 0.9154                 0.5214
 IR Inten    --     2.5960                 2.7003                 0.0743

                    16                     17                     18
                     A                      A                      A
 Frequencies --   580.5978               733.6635               761.0373
 Red. masses --     5.4458                 3.2600                 6.0390
 Frc consts  --     1.0816                 1.0339                 2.0608
 IR Inten    --    28.7347                 0.6333                 2.6391

                    19                     20                     21
                     A                      A                      A
 Frequencies --   792.8404               905.3733               917.9157
 Red. masses --     1.2770                 1.3107                 3.0067
 Frc consts  --     0.4730                 0.6330                 1.4926
 IR Inten    --    21.5438                 0.0040                 0.2952

                    22                     23                     24
                     A                      A                      A
 Frequencies --   975.8947              1003.8036              1034.1046
 Red. masses --     1.2817                 1.5270                 2.6443
 Frc consts  --     0.7192                 0.9065                 1.6660
 IR Inten    --     0.0846                 3.4352                 0.5467

                    25                     26                     27
                     A                      A                      A
 Frequencies --  1046.5806              1060.9522              1070.2517
 Red. masses --     2.6011                 1.5208                 1.5239
 Frc consts  --     1.6786                 1.0086                 1.0285
 IR Inten    --     0.8370                 3.7793                 1.1587

                    28                     29                     30
                     A                      A                      A
 Frequencies --  1138.0170              1200.7046              1257.3367
 Red. masses --     1.6359                 1.2034                 3.5115
 Frc consts  --     1.2482                 1.0222                 3.2707
 IR Inten    --     0.5732                 0.4793                 7.2200

                    31                     32                     33
                     A                      A                      A
 Frequencies --  1266.5247              1322.8745              1436.0617
 Red. masses --     1.9341                 6.8192                 1.2720
 Frc consts  --     1.8279                 7.0311                 1.5455
 IR Inten    --     6.5995                 2.3860                 0.7727

                    34                     35                     36
                     A                      A                      A
 Frequencies --  1440.9823              1448.6188              1492.4062
 Red. masses --     1.5099                 1.9546                 2.1598
 Frc consts  --     1.8472                 2.4167                 2.8343
 IR Inten    --     0.5234                 1.3553                22.2262

                    37                     38                     39
                     A                      A                      A
 Frequencies --  1495.1859              1520.2064              1520.5692
 Red. masses --     1.0431                 1.0451                 1.0961
 Frc consts  --     1.3740                 1.4230                 1.4932
 IR Inten    --     1.7690                 9.3851                17.7324

                    40                     41                     42
                     A                      A                      A
 Frequencies --  1526.9025              1618.7267              1632.5758
 Red. masses --     1.1156                 5.6545                 4.7947
 Frc consts  --     1.5324                 8.7295                 7.5294
 IR Inten    --     9.0290                15.6745                 0.3380

                    43                     44                     45
                     A                      A                      A
 Frequencies --  3006.8448              3016.9968              3061.5028
 Red. masses --     1.0481                 1.0409                 1.1010
 Frc consts  --     5.5830                 5.5824                 6.0799
 IR Inten    --    49.7608                30.1030                23.3402

                    46                     47                     48
                     A                      A                      A
 Frequencies --  3071.9655              3095.3315              3115.7760
 Red. masses --     1.0870                 1.1015                 1.0957
 Frc consts  --     6.0437                 6.2182                 6.2673
 IR Inten    --    41.4582                14.9823                21.3393

                    49                     50                     51
                     A                      A                      A
 Frequencies --  3165.6398              3173.9301              3197.1044
 Red. masses --     1.0862                 1.0898                 1.0960
 Frc consts  --     6.4135                 6.4685                 6.6005
 IR Inten    --     5.3380                29.7474                40.0345

 - Thermochemistry -
 -------------------
 Temperature   298.150 Kelvin.  Pressure   1.00000 Atm.
 Atom     1 has atomic number 35 and mass  78.91834

 Molecular mass:   207.97381 amu.
 Principal axes and moments of inertia in atomic units:
                           1         2         3
     Eigenvalues --  1038.284425333.183346348.93728
           X            1.00000  -0.00021   0.00001
           Y            0.00021   1.00000  -0.00000
           Z           -0.00001   0.00000   1.00000
 This molecule is an asymmetric top.
 Rotational symmetry number  1.
 Warning -- assumption of classical behavior for rotation
           may cause significant error
 Rotational temperatures (Kelvin)      0.08342     0.01624     0.01364
 Rotational constants (GHZ):           1.73820     0.33840     0.28426
    1 imaginary frequencies ignored.
 Zero-point vibrational energy     382257.2 (Joules/Mol)
                                   91.36166 (Kcal/Mol)
 Warning -- explicit consideration of  15 degrees of freedom as
           vibrations may cause significant error
 Vibrational temperatures:     40.25    54.91    79.25   204.08   212.02
          (Kelvin)            237.19   304.55   357.53   440.32   626.16
                              678.81   692.15   769.63   774.24   835.35
                             1055.58  1094.96  1140.72  1302.63  1320.67
                             1404.09  1444.25  1487.84  1505.79  1526.47
                             1539.85  1637.35  1727.54  1809.02  1822.24
                             1903.32  2066.17  2073.25  2084.24  2147.24
                             2151.24  2187.24  2187.76  2196.87  2328.98
                             2348.91  4326.17  4340.78  4404.81  4419.87
                             4453.49  4482.90  4554.64  4566.57  4599.91

 Zero-point correction=                           0.145594 (Hartree/Particle)
 Thermal correction to Energy=                    0.156382
 Thermal correction to Enthalpy=                  0.157327
 Thermal correction to Gibbs Free Energy=         0.105724
 Sum of electronic and zero-point Energies=          -3082.006455
 Sum of electronic and thermal Energies=             -3081.995667
 Sum of electronic and thermal Enthalpies=           -3081.994723
 Sum of electronic and thermal Free Energies=        -3082.046326

                     E (Thermal)             CV                S
                      KCal/Mol        Cal/Mol-Kelvin    Cal/Mol-Kelvin
 Total                   98.131             37.109            108.608
 Electronic               0.000              0.000              0.000
 Translational            0.889              2.981             41.901
 Rotational               0.889              2.981             31.931
 Vibrational             96.354             31.148             34.776
 Vibration     1          0.593              1.984              5.968
 Vibration     2          0.594              1.982              5.352
 Vibration     3          0.596              1.976              4.626
 Vibration     4          0.615              1.911              2.779
 Vibration     5          0.617              1.906              2.706
 Vibration     6          0.623              1.886              2.493
 Vibration     7          0.643              1.823              2.029
 Vibration     8          0.662              1.765              1.741
 Vibration     9          0.696              1.662              1.384
 Vibration    10          0.796              1.393              0.842
 Vibration    11          0.829              1.313              0.733
 Vibration    12          0.837              1.292              0.707
 Vibration    13          0.890              1.173              0.576
 Vibration    14          0.893              1.166              0.569
 Vibration    15          0.937              1.073              0.484

 Normal termination of Gaussian 09 at Mon Oct  4 22:33:57 2021.
 Gaussian 09:  AM64L-G09RevA.02 11-Jun-2009

 ----------------------------------------------------------------------
 #p TD(NStates=10, Root=1) b3lyp/6-31G* volume pop=NPA density=current
 Geom=AllCheck Guess=Read
 ----------------------------------------------------------------------

 Br[Mg]c1c(C)cccc1C_conf_0
 -------------------------
 Redundant internal coordinates taken from checkpoint file:
 C8H9BrMg_a67b_conf_0.chk
 Charge =  0 Multiplicity = 1

                         Standard orientation:
 ---------------------------------------------------------------------
 Center     Atomic      Atomic             Coordinates (Angstroms)
 Number     Number       Type             X           Y           Z
 ---------------------------------------------------------------------
      1         35           0        3.256710    0.002178   -0.000158
      2         12           0        0.920357    0.014804    0.000210
      3          6           0       -1.158184    0.014153    0.000375
      4          6           0       -1.855086   -1.210560    0.000128
      5          6           0       -1.130647   -2.542765    0.000372
      6          6           0       -3.260261   -1.224166   -0.000302
      7          6           0       -3.975509   -0.032211   -0.000488
      8          6           0       -3.296248    1.188727   -0.000215
      9          6           0       -1.899265    1.219937    0.000199
     10          6           0       -1.182269    2.556344    0.000315
     11          1           0       -0.036216   -2.423757    0.000309
     12          1           0       -1.382783   -3.144386   -0.882000
     13          1           0       -1.382683   -3.143960    0.883065
     14          1           0       -3.791821   -2.174116   -0.000485
     15          1           0       -5.062606   -0.048844   -0.000844
     16          1           0       -3.859716    2.119484   -0.000340
     17          1           0       -1.883263    3.397593    0.001502
     18          1           0       -0.543475    2.674223   -0.886908
     19          1           0       -0.541744    2.673125    0.886423
 ---------------------------------------------------------------------

 SCF Done:  E(RB3LYP) =  -3082.15204938     A.U. after    3 cycles

 Excitation energies and oscillator strengths:

 Excited State   1:      Singlet-A      4.6200 eV  268.36 nm  f=0.0003  <S**2>=0.000
      51 -> 53        -0.15508
      52 -> 53         0.68801
 This state for optimization and/or second-order correction.
 Total Energy, E(TD-HF/TD-KS) =  -3081.98226719
 Copying the excited state density for this state as the 1-particle RhoCI density.

 Excited State   2:      Singlet-A      4.6719 eV  265.39 nm  f=0.0056  <S**2>=0.000
      51 -> 53         0.68371
      52 -> 53         0.15740

 Excited State   3:      Singlet-A      4.7701 eV  259.92 nm  f=0.0145  <S**2>=0.000
      51 -> 56         0.24957
      52 -> 54         0.65176

 Excited State   4:      Singlet-A      5.1030 eV  242.96 nm  f=0.1191  <S**2>=0.000
      51 -> 54         0.67808
      52 -> 54        -0.10304
      52 -> 56        -0.13021

 Excited State   5:      Singlet-A      5.2459 eV  236.35 nm  f=0.0161  <S**2>=0.000
      49 -> 53        -0.11595
      50 -> 54         0.69105

 Excited State   6:      Singlet-A      5.4975 eV  225.53 nm  f=0.0001  <S**2>=0.000
      52 -> 55         0.70302

 Excited State   7:      Singlet-A      5.5210 eV  224.57 nm  f=0.3272  <S**2>=0.000
      49 -> 54         0.10845
      50 -> 53         0.66837
      51 -> 57        -0.17395

 Excited State   8:      Singlet-A      5.5753 eV  222.38 nm  f=0.0001  <S**2>=0.000
      51 -> 55         0.70177

 Excited State   9:      Singlet-A      5.5974 eV  221.50 nm  f=0.0323  <S**2>=0.000
      48 -> 53         0.69824

 Excited State  10:      Singlet-A      5.6161 eV  220.76 nm  f=0.0616  <S**2>=0.000
      49 -> 53         0.69429
      50 -> 54         0.11542

 The electronic state is 1-A.
 Alpha  occ. eigenvalues -- -482.87672 -61.83884 -56.35611 -56.35475 -56.35467
 Alpha  occ. eigenvalues --  -46.84180 -10.19606 -10.19406 -10.19400 -10.19008
 Alpha  occ. eigenvalues --  -10.18639 -10.18148 -10.18129 -10.16352  -8.54775
 Alpha  occ. eigenvalues --   -6.49511  -6.49123  -6.49114  -3.12906  -2.61189
 Alpha  occ. eigenvalues --   -2.61068  -2.61061  -2.60752  -2.60752  -1.87539
 Alpha  occ. eigenvalues --   -1.87486  -1.86886  -0.84753  -0.77915  -0.75135
 Alpha  occ. eigenvalues --   -0.72269  -0.68419  -0.67916  -0.58165  -0.56511
 Alpha  occ. eigenvalues --   -0.48722  -0.46570  -0.43292  -0.42828  -0.42044
 Alpha  occ. eigenvalues --   -0.41228  -0.40011  -0.37700  -0.36579  -0.34034
 Alpha  occ. eigenvalues --   -0.33198  -0.32579  -0.27808  -0.27791  -0.25763
 Alpha  occ. eigenvalues --   -0.23926  -0.23343
 Alpha virt. eigenvalues --   -0.03594  -0.03088  -0.00500   0.00431   0.02713
 Alpha virt. eigenvalues --    0.06781   0.09824   0.10997   0.11535   0.13170
 Alpha virt. eigenvalues --    0.13792   0.14702   0.14774   0.16335   0.17726

 Mulliken atomic charges:
              1
     1  Br  -0.266956
     2  Mg  -0.180271
     3  C   -0.057473
     4  C    0.104309
     5  C   -0.543580
     6  C   -0.097775
     7  C   -0.124908
     8  C   -0.133481
     9  C    0.140675
    10  C   -0.551299
    11  H    0.211518
    12  H    0.177350
    13  H    0.177374
    14  H    0.181063
    15  H    0.170787
    16  H    0.169832
    17  H    0.163441
    18  H    0.229703
    19  H    0.229689
 Sum of Mulliken atomic charges =  -0.00000

 Dipole moment (field-independent basis, Debye):
    X=            -13.7562    Y=              0.1893    Z=              0.0018  Tot=             13.7575
 Quadrupole moment (field-independent basis, Debye-Ang):
   XX=            -78.5860   YY=            -66.0128   ZZ=            -81.3943
   XY=              0.5822   XZ=              0.0060   YZ=             -0.0009

 Summary of Natural Population Analysis:

                                       Natural Population
                Natural  -----------------------------------------------
    Atom  No    Charge         Core      Valence    Rydberg      Total
 -----------------------------------------------------------------------
     Br    1   -0.65667     27.99976     7.64608    0.01083    35.65667
     Mg    2    0.58706      9.99824     1.38690    0.02779    11.41294
      C    3   -0.52511      1.99913     4.49557    0.03042     6.52511
      C    4    0.00145      1.99905     3.98402    0.01548     5.99855
      C    5   -0.70311      1.99939     4.69567    0.00805     6.70311
      C    6   -0.02750      1.99901     4.01629    0.01220     6.02750
      C    7   -0.26243      1.99915     4.24810    0.01519     6.26243
      C    8   -0.14995      1.99902     4.13809    0.01284     6.14995
      C    9    0.15831      1.99903     3.82766    0.01499     5.84169
      C   10   -0.72901      1.99939     4.72130    0.00832     6.72901
      H   11    0.24518      0.00000     0.75246    0.00236     0.75482
      H   12    0.25462      0.00000     0.74430    0.00109     0.74538
      H   13    0.25464      0.00000     0.74428    0.00109     0.74536
      H   14    0.24290      0.00000     0.75583    0.00127     0.75710
      H   15    0.25610      0.00000     0.74328    0.00061     0.74390
      H   16    0.24580      0.00000     0.75288    0.00132     0.75420
      H   17    0.24127      0.00000     0.75759    0.00115     0.75873
      H   18    0.28305      0.00000     0.71567    0.00128     0.71695
      H   19    0.28298      0.00000     0.71574    0.00128     0.71702
 =======================================================================
   * Total *   -0.00043     53.99118    49.84169    0.16756   104.00043

 Normal termination of Gaussian 09 at Mon Oct  4 23:38:27 2021.
