 Gaussian 09, Revision A.02,

 -----------------------------------
 #p opt b3lyp/6-31G* scf=(xqc,tight)
 -----------------------------------

 -----------------------------
 COc1cc(OC)cc(c1)[Mg]Br_conf_0
 -----------------------------
 Symbolic Z-matrix:
 Charge =  0 Multiplicity = 1

 SCF Done:  E(RB3LYP) =  -3232.54022106     A.U. after   14 cycles
 SCF Done:  E(RB3LYP) =  -3232.55542944     A.U. after   11 cycles
 SCF Done:  E(RB3LYP) =  -3232.56107110     A.U. after   13 cycles
 SCF Done:  E(RB3LYP) =  -3232.55542516     A.U. after   14 cycles
 SCF Done:  E(RB3LYP) =  -3232.56157912     A.U. after   14 cycles
 SCF Done:  E(RB3LYP) =  -3232.56195959     A.U. after   10 cycles
 SCF Done:  E(RB3LYP) =  -3232.56209163     A.U. after    9 cycles
 SCF Done:  E(RB3LYP) =  -3232.56210239     A.U. after    9 cycles
 SCF Done:  E(RB3LYP) =  -3232.56210898     A.U. after   15 cycles
 SCF Done:  E(RB3LYP) =  -3232.56211548     A.U. after   15 cycles
 SCF Done:  E(RB3LYP) =  -3232.56211988     A.U. after   15 cycles
 SCF Done:  E(RB3LYP) =  -3232.56212252     A.U. after    8 cycles
 Optimization completed.
    -- Stationary point found.
 Normal termination of Gaussian 09 at Sun Oct  3 15:04:48 2021.

 ----------------------------------------------------------------------
 #p freq b3lyp/6-31G* volume NMR pop=NPA density=current Geom=AllCheck
 Guess=Read
 ----------------------------------------------------------------------

 COc1cc(OC)cc(c1)[Mg]Br_conf_0
 -----------------------------
 Redundant internal coordinates taken from checkpoint file:
 C8H9BrMgO2_df92_conf_0.chk
 Charge =  0 Multiplicity = 1

 SCF Done:  E(RB3LYP) =  -3232.56212252     A.U. after    1 cycles

  1  C    Isotropic =   137.5753   Anisotropy =    65.5290

  2  O    Isotropic =   238.0301   Anisotropy =    68.8331

  3  C    Isotropic =    38.4255   Anisotropy =   125.2218

  4  C    Isotropic =    93.9965   Anisotropy =   116.4162

  5  C    Isotropic =    38.6572   Anisotropy =   124.9678

  6  O    Isotropic =   239.4638   Anisotropy =    74.0576

  7  C    Isotropic =   137.8769   Anisotropy =    64.9298

  8  C    Isotropic =    72.6418   Anisotropy =   122.5386

  9  C    Isotropic =    50.7041   Anisotropy =   196.9022

 10  C    Isotropic =    82.8830   Anisotropy =   129.1760

 11  Mg   Isotropic =   518.7950   Anisotropy =   279.0839

 12  Br   Isotropic =  2950.4587   Anisotropy =   248.6724

 13  H    Isotropic =    28.4066   Anisotropy =     8.0682

 14  H    Isotropic =    28.7536   Anisotropy =     7.9030

 15  H    Isotropic =    28.7562   Anisotropy =     7.8967

 16  H    Isotropic =    26.3379   Anisotropy =     8.8991

 17  H    Isotropic =    28.4105   Anisotropy =     8.1480

 18  H    Isotropic =    28.7406   Anisotropy =     7.9374

 19  H    Isotropic =    28.7404   Anisotropy =     7.9373

 20  H    Isotropic =    25.7211   Anisotropy =     8.5836

 21  H    Isotropic =    26.0778   Anisotropy =     9.9066

  Exact polarizability: 185.830   4.081 145.550  -0.019  -0.003  75.256
 Approx polarizability: 251.392   0.818 220.289  -0.025  -0.012 110.998

                     1                      2                      3
                     A                      A                      A
 Frequencies --    30.8117                41.3252                82.5528
 Red. masses --     7.3577                 5.8830                 3.2275
 Frc consts  --     0.0041                 0.0059                 0.0130
 IR Inten    --     1.2454                 0.0945                 8.6070

                     4                      5                      6
                     A                      A                      A
 Frequencies --    94.0485               149.3553               156.7925
 Red. masses --     3.6058                 7.8247                13.5128
 Frc consts  --     0.0188                 0.1028                 0.1957
 IR Inten    --     5.3858                 0.8393                26.8549

                     7                      8                      9
                     A                      A                      A
 Frequencies --   174.7013               202.3750               208.9852
 Red. masses --     6.0362                 4.1290                 1.6910
 Frc consts  --     0.1085                 0.0996                 0.0435
 IR Inten    --    21.5425                 2.8318                 2.1887

                    10                     11                     12
                     A                      A                      A
 Frequencies --   215.7373               280.1103               282.2950
 Red. masses --     2.1670                 1.7660                 1.5090
 Frc consts  --     0.0594                 0.0816                 0.0708
 IR Inten    --     3.4625                 2.3396                 0.1379

                    13                     14                     15
                     A                      A                      A
 Frequencies --   299.4183               424.8805               471.8093
 Red. masses --     3.3112                 4.7766                 6.5603
 Frc consts  --     0.1749                 0.5080                 0.8604
 IR Inten    --     4.3568                 7.8605                26.1118

                    16                     17                     18
                     A                      A                      A
 Frequencies --   487.8777               513.5136               546.4976
 Red. masses --    11.1941                 5.4693                 5.4586
 Frc consts  --     1.5699                 0.8497                 0.9605
 IR Inten    --    96.7067                 7.5894                 5.1811

                    19                     20                     21
                     A                      A                      A
 Frequencies --   608.8287               629.0943               704.0050
 Red. masses --     4.6415                 4.7103                 2.5480
 Frc consts  --     1.0137                 1.0983                 0.7441
 IR Inten    --    17.1980                 0.0308                 3.1053

                    22                     23                     24
                     A                      A                      A
 Frequencies --   814.7850               824.2359               853.0984
 Red. masses --     8.7272                 1.2978                 1.5922
 Frc consts  --     3.4136                 0.5195                 0.6827
 IR Inten    --     1.6443                16.3181                38.8619

                    25                     26                     27
                     A                      A                      A
 Frequencies --   869.3089               950.3133              1002.1879
 Red. masses --     1.4302                 5.4427                 6.2259
 Frc consts  --     0.6368                 2.8960                 3.6843
 IR Inten    --     1.1523                13.1737                 7.6030

                    28                     29                     30
                     A                      A                      A
 Frequencies --  1084.7203              1101.5617              1151.2454
 Red. masses --     6.9647                 2.6123                 1.7782
 Frc consts  --     4.8282                 1.8677                 1.3886
 IR Inten    --    36.5756                40.7250                15.8827

                    31                     32                     33
                     A                      A                      A
 Frequencies --  1184.6318              1185.7190              1202.6880
 Red. masses --     1.2710                 1.2703                 1.7193
 Frc consts  --     1.0509                 1.0523                 1.4653
 IR Inten    --     0.4723                 0.9313               163.7423

                    34                     35                     36
                     A                      A                      A
 Frequencies --  1220.6618              1245.7508              1294.6995
 Red. masses --     1.4007                 2.0180                 3.5512
 Frc consts  --     1.2296                 1.8452                 3.5072
 IR Inten    --     4.5854               247.0475                51.3285

                    37                     38                     39
                     A                      A                      A
 Frequencies --  1330.5186              1372.1722              1440.5683
 Red. masses --     1.7559                 3.5009                 3.1279
 Frc consts  --     1.8314                 3.8837                 3.8245
 IR Inten    --    87.9702                69.9154               122.4494

                    40                     41                     42
                     A                      A                      A
 Frequencies --  1489.7906              1501.0585              1518.7787
 Red. masses --     1.5600                 1.2359                 1.6959
 Frc consts  --     2.0399                 1.6407                 2.3049
 IR Inten    --    10.7793                 5.3002                17.6057

                    43                     44                     45
                     A                      A                      A
 Frequencies --  1519.9733              1520.3549              1535.4882
 Red. masses --     1.0482                 1.0487                 1.0612
 Frc consts  --     1.4268                 1.4282                 1.4742
 IR Inten    --     4.0618                 6.3901                23.7145

                    46                     47                     48
                     A                      A                      A
 Frequencies --  1537.6998              1620.0646              1638.2237
 Red. masses --     1.1086                 6.3291                 4.7491
 Frc consts  --     1.5444                 9.7871                 7.5094
 IR Inten    --    24.4389                81.0360               238.0507

                    49                     50                     51
                     A                      A                      A
 Frequencies --  3023.8515              3025.3116              3081.8868
 Red. masses --     1.0347                 1.0346                 1.1066
 Frc consts  --     5.5742                 5.5789                 6.1926
 IR Inten    --    52.2585                55.6133                40.6198

                    52                     53                     54
                     A                      A                      A
 Frequencies --  3083.8252              3153.6117              3155.4828
 Red. masses --     1.1066                 1.0996                 1.0999
 Frc consts  --     6.2005                 6.4435                 6.4526
 IR Inten    --    47.2586                32.9320                27.7842

                    55                     56                     57
                     A                      A                      A
 Frequencies --  3167.4794              3192.9420              3238.0762
 Red. masses --     1.0896                 1.0885                 1.0899
 Frc consts  --     6.4410                 6.5381                 6.7330
 IR Inten    --    12.0809                17.0110                 3.7752

 - Thermochemistry -
 -------------------
 Temperature   298.150 Kelvin.  Pressure   1.00000 Atm.
 Atom     1 has atomic number  6 and mass  12.00000

 Molecular mass:   239.96364 amu.
 Principal axes and moments of inertia in atomic units:
                           1         2         3
     Eigenvalues --  2014.194238648.03147**********
           X            0.99997   0.00719  -0.00001
           Y           -0.00719   0.99997   0.00002
           Z            0.00001  -0.00002   1.00000
 This molecule is an asymmetric top.
 Rotational symmetry number  1.
 Warning -- assumption of classical behavior for rotation
           may cause significant error
 Rotational temperatures (Kelvin)      0.04300     0.01002     0.00814
 Rotational constants (GHZ):           0.89601     0.20869     0.16963
 Zero-point vibrational energy     411143.2 (Joules/Mol)
                                   98.26559 (Kcal/Mol)
 Warning -- explicit consideration of  19 degrees of freedom as
           vibrations may cause significant error
 Vibrational temperatures:     44.33    59.46   118.77   135.31   214.89
          (Kelvin)            225.59   251.36   291.17   300.68   310.40
                              403.02   406.16   430.80   611.31   678.83
                              701.95   738.83   786.29   875.97   905.13
                             1012.90  1172.29  1185.89  1227.42  1250.74
                             1367.29  1441.92  1560.67  1584.90  1656.38
                             1704.42  1705.98  1730.40  1756.26  1792.36
                             1862.78  1914.32  1974.25  2072.65  2143.47
                             2159.69  2185.18  2186.90  2187.45  2209.22
                             2212.40  2330.91  2357.04  4350.64  4352.74
                             4434.14  4436.93  4537.34  4540.03  4557.29
                             4593.93  4658.86

 Zero-point correction=                           0.156596 (Hartree/Particle)
 Thermal correction to Energy=                    0.169660
 Thermal correction to Enthalpy=                  0.170605
 Thermal correction to Gibbs Free Energy=         0.114228
 Sum of electronic and zero-point Energies=          -3232.405526
 Sum of electronic and thermal Energies=             -3232.392462
 Sum of electronic and thermal Enthalpies=           -3232.391518
 Sum of electronic and thermal Free Energies=        -3232.447895

                     E (Thermal)             CV                S
                      KCal/Mol        Cal/Mol-Kelvin    Cal/Mol-Kelvin
 Total                  106.463             45.316            118.655
 Electronic               0.000              0.000              0.000
 Translational            0.889              2.981             42.327
 Rotational               0.889              2.981             33.582
 Vibrational            104.686             39.355             42.745
 Vibration     1          0.594              1.984              5.776
 Vibration     2          0.594              1.981              5.195
 Vibration     3          0.600              1.961              3.829
 Vibration     4          0.603              1.953              3.574
 Vibration     5          0.618              1.903              2.680
 Vibration     6          0.620              1.895              2.588
 Vibration     7          0.627              1.874              2.384
 Vibration     8          0.639              1.837              2.111
 Vibration     9          0.642              1.827              2.053
 Vibration    10          0.645              1.817              1.995
 Vibration    11          0.680              1.710              1.533
 Vibration    12          0.681              1.706              1.520
 Vibration    13          0.692              1.675              1.420
 Vibration    14          0.787              1.416              0.876
 Vibration    15          0.829              1.313              0.733
 Vibration    16          0.844              1.277              0.689
 Vibration    17          0.869              1.220              0.625
 Vibration    18          0.902              1.147              0.551
 Vibration    19          0.968              1.013              0.435

 Normal termination of Gaussian 09 at Sun Oct  3 16:25:26 2021.
 Gaussian 09:  AM64L-G09RevA.02 11-Jun-2009

 ----------------------------------------------------------------------
 #p TD(NStates=10, Root=1) b3lyp/6-31G* volume pop=NPA density=current
 Geom=AllCheck Guess=Read
 ----------------------------------------------------------------------

 COc1cc(OC)cc(c1)[Mg]Br_conf_0
 -----------------------------
 Redundant internal coordinates taken from checkpoint file:
 C8H9BrMgO2_df92_conf_0.chk
 Charge =  0 Multiplicity = 1

                         Standard orientation:
 ---------------------------------------------------------------------
 Center     Atomic      Atomic             Coordinates (Angstroms)
 Number     Number       Type             X           Y           Z
 ---------------------------------------------------------------------
      1          6           0       -2.442500    3.552782    0.001165
      2          8           0       -3.075447    2.284724   -0.000541
      3          6           0       -2.287171    1.165895   -0.000503
      4          6           0       -2.998434   -0.045238    0.000000
      5          6           0       -2.297130   -1.247686   -0.000146
      6          8           0       -2.886089   -2.480424    0.000339
      7          6           0       -4.302890   -2.547581    0.000711
      8          6           0       -0.889510   -1.244596   -0.000672
      9          6           0       -0.168474   -0.045259   -0.001181
     10          6           0       -0.890104    1.172406   -0.001106
     11         12           0        1.902386   -0.104613   -0.000206
     12         35           0        4.236307   -0.159146    0.000264
     13          1           0       -3.247962    4.289916    0.002660
     14          1           0       -1.821900    3.697182   -0.893369
     15          1           0       -1.821069    3.694328    0.895556
     16          1           0       -4.080591    0.000604    0.000535
     17          1           0       -4.552939   -3.610284    0.000844
     18          1           0       -4.730236   -2.074471   -0.893447
     19          1           0       -4.729776   -2.074362    0.895034
     20          1           0       -0.402310   -2.217622   -0.000806
     21          1           0       -0.363025    2.121428   -0.001766
 ---------------------------------------------------------------------

 SCF Done:  E(RB3LYP) =  -3232.56212252     A.U. after    1 cycles

 Excitation energies and oscillator strengths:

 Excited State   1:      Singlet-A      3.7237 eV  332.96 nm  f=0.0001  <S**2>=0.000
      60 -> 61         0.70571
 This state for optimization and/or second-order correction.
 Total Energy, E(TD-HF/TD-KS) =  -3232.42527770
 Copying the excited state density for this state as the 1-particle RhoCI density.

 Excited State   2:      Singlet-A      4.3059 eV  287.94 nm  f=0.0065  <S**2>=0.000
      59 -> 61         0.70154

 Excited State   3:      Singlet-A      4.4141 eV  280.88 nm  f=0.0231  <S**2>=0.000
      59 -> 64        -0.14800
      60 -> 62         0.68597

 Excited State   4:      Singlet-A      4.5990 eV  269.59 nm  f=0.0011  <S**2>=0.000
      60 -> 63         0.70560

 Excited State   5:      Singlet-A      5.0964 eV  243.28 nm  f=0.0782  <S**2>=0.000
      59 -> 62         0.68776

 Excited State   6:      Singlet-A      5.1743 eV  239.61 nm  f=0.0000  <S**2>=0.000
      59 -> 63         0.70366

 Excited State   7:      Singlet-A      5.3343 eV  232.43 nm  f=0.4191  <S**2>=0.000
      58 -> 61         0.67594
      59 -> 65         0.12707

 Excited State   8:      Singlet-A      5.4108 eV  229.14 nm  f=0.0095  <S**2>=0.000
      57 -> 61         0.60843
      58 -> 62        -0.35589

 Excited State   9:      Singlet-A      5.4519 eV  227.41 nm  f=0.0321  <S**2>=0.000
      56 -> 61         0.69546

 Excited State  10:      Singlet-A      5.4827 eV  226.14 nm  f=0.0177  <S**2>=0.000
      59 -> 64         0.30245
      59 -> 65        -0.10668
      60 -> 64         0.29928
      60 -> 65         0.53922

 The electronic state is 1-A.
 Alpha  occ. eigenvalues -- -482.87802 -61.84031 -56.35762 -56.35624 -56.35619
 Alpha  occ. eigenvalues --  -46.84356 -19.17530 -19.17459 -10.24389 -10.24284
 Alpha  occ. eigenvalues --  -10.24047 -10.23876 -10.17927 -10.17861 -10.17619
 Alpha  occ. eigenvalues --  -10.17146  -8.54942  -6.49688  -6.49291  -6.49280
 Alpha  occ. eigenvalues --   -3.13147  -2.61365  -2.61242  -2.61234  -2.60917
 Alpha  occ. eigenvalues --   -2.60917  -1.87783  -1.87722  -1.87123  -1.06126
 Alpha  occ. eigenvalues --   -1.05949  -0.83710  -0.75487  -0.73908  -0.72437
 Alpha  occ. eigenvalues --   -0.69842  -0.68498  -0.58603  -0.58249  -0.53086
 Alpha  occ. eigenvalues --   -0.49471  -0.48193  -0.47638  -0.46813  -0.46370
 Alpha  occ. eigenvalues --   -0.43675  -0.40894  -0.39220  -0.37801  -0.36503
 Alpha  occ. eigenvalues --   -0.34499  -0.34014  -0.33130  -0.32625  -0.29362
 Alpha  occ. eigenvalues --   -0.27974  -0.27918  -0.25964  -0.22775  -0.20782
 Alpha virt. eigenvalues --   -0.04315  -0.02310  -0.01241   0.02243   0.02658
 Alpha virt. eigenvalues --    0.06904   0.10324   0.10443   0.11819   0.12598
 Alpha virt. eigenvalues --    0.12882   0.14299   0.14523   0.15439   0.15672

 Mulliken atomic charges:
              1
     1  C   -0.247064
     2  O   -0.460330
     3  C    0.411977
     4  C   -0.254207
     5  C    0.411042
     6  O   -0.459554
     7  C   -0.238336
     8  C   -0.174585
     9  C   -0.021599
    10  C   -0.204463
    11  Mg  -0.133706
    12  Br  -0.275950
    13  H    0.194852
    14  H    0.188309
    15  H    0.188333
    16  H    0.163499
    17  H    0.197264
    18  H    0.178279
    19  H    0.178283
    20  H    0.184957
    21  H    0.172997
 Sum of Mulliken atomic charges =  -0.00000

 Dipole moment (field-independent basis, Debye):
    X=            -15.9430    Y=              1.7935    Z=             -0.0045  Tot=             16.0436
 Quadrupole moment (field-independent basis, Debye-Ang):
   XX=           -103.3748   YY=            -69.2607   ZZ=            -91.6082
   XY=              4.3408   XZ=             -0.0246   YZ=              0.0056

 Summary of Natural Population Analysis:

                                       Natural Population
                Natural  -----------------------------------------------
    Atom  No    Charge         Core      Valence    Rydberg      Total
 -----------------------------------------------------------------------
      C    1   -0.33212      1.99942     4.31828    0.01442     6.33212
      O    2   -0.45248      1.99975     6.44126    0.01147     8.45248
      C    3    0.39952      1.99880     3.57949    0.02220     5.60048
      C    4   -0.39445      1.99896     4.38247    0.01303     6.39445
      C    5    0.37095      1.99880     3.60837    0.02188     5.62905
      O    6   -0.45157      1.99975     6.44010    0.01172     8.45157
      C    7   -0.32873      1.99942     4.31511    0.01420     6.32873
      C    8   -0.12864      1.99904     4.11527    0.01432     6.12864
      C    9   -0.54539      1.99931     4.51165    0.03443     6.54539
      C   10   -0.19027      1.99903     4.17881    0.01244     6.19027
     Mg   11    0.59742      9.99815     1.37551    0.02892    11.40258
     Br   12   -0.66722     27.99974     7.65717    0.01031    35.66722
      H   13    0.24261      0.00000     0.75700    0.00039     0.75739
      H   14    0.22458      0.00000     0.77440    0.00102     0.77542
      H   15    0.22458      0.00000     0.77440    0.00102     0.77542
      H   16    0.26026      0.00000     0.73854    0.00120     0.73974
      H   17    0.24382      0.00000     0.75578    0.00040     0.75618
      H   18    0.21972      0.00000     0.77898    0.00130     0.78028
      H   19    0.21972      0.00000     0.77898    0.00130     0.78028
      H   20    0.24826      0.00000     0.74887    0.00288     0.75174
      H   21    0.23921      0.00000     0.75796    0.00283     0.76079
 =======================================================================
   * Total *   -0.00021     57.99016    61.78838    0.22168   120.00021

 Normal termination of Gaussian 09 at Sun Oct  3 20:17:11 2021.
