 Gaussian 09, Revision A.02,

 -----------------------------------
 #p opt b3lyp/6-31G* scf=(xqc,tight)
 -----------------------------------

 -----------------------
 COCOc1ccccc1[Li]_conf_0
 -----------------------
 Symbolic Z-matrix:
 Charge =  0 Multiplicity = 1

 SCF Done:  E(RB3LYP) =  -468.174269877     A.U. after   15 cycles
 SCF Done:  E(RB3LYP) =  -468.182140085     A.U. after   12 cycles
 SCF Done:  E(RB3LYP) =  -468.183241755     A.U. after   11 cycles
 SCF Done:  E(RB3LYP) =  -468.183344767     A.U. after   10 cycles
 SCF Done:  E(RB3LYP) =  -468.183378715     A.U. after    9 cycles
 SCF Done:  E(RB3LYP) =  -468.183411661     A.U. after    9 cycles
 SCF Done:  E(RB3LYP) =  -468.183446739     A.U. after   15 cycles
 SCF Done:  E(RB3LYP) =  -468.183470982     A.U. after    9 cycles
 SCF Done:  E(RB3LYP) =  -468.183473662     A.U. after    8 cycles
 SCF Done:  E(RB3LYP) =  -468.183473811     A.U. after    8 cycles
 SCF Done:  E(RB3LYP) =  -468.183473842     A.U. after    7 cycles
 Optimization completed.
    -- Stationary point found.
 Normal termination of Gaussian 09 at Sat Oct  2 19:11:47 2021.

 ----------------------------------------------------------------------
 #p freq b3lyp/6-31G* volume NMR pop=NPA density=current Geom=AllCheck
 Guess=Read
 ----------------------------------------------------------------------

 COCOc1ccccc1[Li]_conf_0
 -----------------------
 Redundant internal coordinates taken from checkpoint file:
 C8H9LiO2_fd05_conf_0.chk
 Charge =  0 Multiplicity = 1

 SCF Done:  E(RB3LYP) =  -468.183473842     A.U. after    1 cycles

  1  C    Isotropic =   137.0772   Anisotropy =    77.7819

  2  O    Isotropic =   287.0637   Anisotropy =    41.5296

  3  C    Isotropic =    96.8539   Anisotropy =    54.8922

  4  O    Isotropic =   201.8601   Anisotropy =   116.7913

  5  C    Isotropic =    31.9105   Anisotropy =   114.9337

  6  C    Isotropic =    81.6261   Anisotropy =   132.4641

  7  C    Isotropic =    69.5731   Anisotropy =   159.6407

  8  C    Isotropic =    75.7419   Anisotropy =   153.4269

  9  C    Isotropic =    54.1421   Anisotropy =   158.4249

 10  C    Isotropic =    51.0356   Anisotropy =   222.3955

 11  Li   Isotropic =    90.2170   Anisotropy =    14.7636

 12  H    Isotropic =    28.2570   Anisotropy =     8.4764

 13  H    Isotropic =    28.9401   Anisotropy =     8.0845

 14  H    Isotropic =    28.9391   Anisotropy =     8.0846

 15  H    Isotropic =    26.9779   Anisotropy =     3.2013

 16  H    Isotropic =    26.9771   Anisotropy =     3.2016

 17  H    Isotropic =    25.6808   Anisotropy =     6.8243

 18  H    Isotropic =    25.3558   Anisotropy =     4.8480

 19  H    Isotropic =    25.7106   Anisotropy =     5.0049

 20  H    Isotropic =    24.5909   Anisotropy =     6.5329

  Exact polarizability: 141.939  -7.574 112.067  -0.003   0.006  58.804
 Approx polarizability: 191.387  -4.875 185.876  -0.005  -0.000  84.843

                     1                      2                      3
                     A                      A                      A
 Frequencies --    33.7277                91.7664               116.3229
 Red. masses --     4.3005                 2.5451                 4.6570
 Frc consts  --     0.0029                 0.0126                 0.0371
 IR Inten    --     0.1376                 1.9133                35.9761

                     4                      5                      6
                     A                      A                      A
 Frequencies --   116.9115               146.4344               168.7191
 Red. masses --     4.1802                 2.0891                 6.0226
 Frc consts  --     0.0337                 0.0264                 0.1010
 IR Inten    --     9.9143                14.4684                98.6901

                     7                      8                      9
                     A                      A                      A
 Frequencies --   226.2740               248.4317               325.0688
 Red. masses --     2.3504                 2.0090                 4.4124
 Frc consts  --     0.0709                 0.0731                 0.2747
 IR Inten    --     0.0001                 9.4158                 0.8445

                    10                     11                     12
                     A                      A                      A
 Frequencies --   328.5532               434.9792               490.1378
 Red. masses --     5.0337                 3.5608                 5.5543
 Frc consts  --     0.3201                 0.3969                 0.7862
 IR Inten    --     0.9127                 9.3518                24.7205

                    13                     14                     15
                     A                      A                      A
 Frequencies --   525.2122               545.9807               632.1325
 Red. masses --     3.4927                 5.0765                 7.9195
 Frc consts  --     0.5676                 0.8916                 1.8645
 IR Inten    --     0.0140                13.8892                 2.5311

                    16                     17                     18
                     A                      A                      A
 Frequencies --   676.1781               717.9203               773.6200
 Red. masses --     6.5149                 3.3294                 1.4749
 Frc consts  --     1.7550                 1.0110                 0.5201
 IR Inten    --     8.1254                 0.7253                39.1080

                    19                     20                     21
                     A                      A                      A
 Frequencies --   846.3558               869.4264               940.0877
 Red. masses --     6.9408                 1.3136                 1.3665
 Frc consts  --     2.9293                 0.5850                 0.7115
 IR Inten    --    22.3447                 0.7910                 0.9307

                    22                     23                     24
                     A                      A                      A
 Frequencies --   973.8641              1033.0459              1046.0887
 Red. masses --     1.2326                 7.1539                 4.3104
 Frc consts  --     0.6888                 4.4981                 2.7791
 IR Inten    --     0.0129                15.1836                16.3228

                    25                     26                     27
                     A                      A                      A
 Frequencies --  1066.1001              1125.6379              1140.3556
 Red. masses --     2.3872                 1.7654                 2.9835
 Frc consts  --     1.5986                 1.3179                 2.2859
 IR Inten    --     4.2014                28.0692                28.7777

                    28                     29                     30
                     A                      A                      A
 Frequencies --  1178.0588              1183.4479              1185.4322
 Red. masses --     2.4867                 1.2780                 1.3220
 Frc consts  --     2.0333                 1.0546                 1.0945
 IR Inten    --   175.3337                 0.0568                67.6847

                    31                     32                     33
                     A                      A                      A
 Frequencies --  1199.9322              1227.4481              1245.1187
 Red. masses --     1.2114                 3.1195                 1.2189
 Frc consts  --     1.0277                 2.7691                 1.1134
 IR Inten    --     1.4800               418.6907                13.4137

                    34                     35                     36
                     A                      A                      A
 Frequencies --  1253.9223              1292.2765              1327.7559
 Red. masses --     2.3541                 2.1241                 3.8149
 Frc consts  --     2.1808                 2.0899                 3.9625
 IR Inten    --     8.6657                65.5493                14.2983

                    37                     38                     39
                     A                      A                      A
 Frequencies --  1416.1123              1466.4052              1489.6588
 Red. masses --     1.3477                 1.9809                 2.1725
 Frc consts  --     1.5924                 2.5096                 2.8405
 IR Inten    --   169.7172                19.6608                 9.5325

                    40                     41                     42
                     A                      A                      A
 Frequencies --  1501.9485              1515.2343              1534.4361
 Red. masses --     1.1759                 1.0473                 1.0645
 Frc consts  --     1.5629                 1.4168                 1.4767
 IR Inten    --     3.1817                 7.6402                10.9778

                    43                     44                     45
                     A                      A                      A
 Frequencies --  1590.9432              1612.9346              1635.0254
 Red. masses --     1.1072                 4.7064                 5.2248
 Frc consts  --     1.6512                 7.2140                 8.2294
 IR Inten    --    10.6248                18.0548                25.3321

                    46                     47                     48
                     A                      A                      A
 Frequencies --  2752.0054              2773.5793              2979.7501
 Red. masses --     1.1067                 1.0430                 1.0387
 Frc consts  --     4.9385                 4.7272                 5.4339
 IR Inten    --   162.9453               101.0492                66.5532

                    49                     50                     51
                     A                      A                      A
 Frequencies --  3019.6264              3108.8626              3155.2272
 Red. masses --     1.1048                 1.0868                 1.0946
 Frc consts  --     5.9351                 6.1888                 6.4203
 IR Inten    --    74.1882                43.3768                23.1875

                    52                     53                     54
                     A                      A                      A
 Frequencies --  3167.1747              3183.5105              3199.1614
 Red. masses --     1.0872                 1.0908                 1.0961
 Frc consts  --     6.4256                 6.5137                 6.6096
 IR Inten    --    17.9330                43.6803                31.7028

 - Thermochemistry -
 -------------------
 Temperature   298.150 Kelvin.  Pressure   1.00000 Atm.
 Atom     1 has atomic number  6 and mass  12.00000

 Molecular mass:   144.07626 amu.
 Principal axes and moments of inertia in atomic units:
                           1         2         3
     Eigenvalues --   531.076832957.872103465.47552
           X            0.99995  -0.00984  -0.00000
           Y            0.00984   0.99995  -0.00001
           Z            0.00000   0.00001   1.00000
 This molecule is an asymmetric top.
 Rotational symmetry number  1.
 Warning -- assumption of classical behavior for rotation
           may cause significant error
 Rotational temperatures (Kelvin)      0.16309     0.02928     0.02499
 Rotational constants (GHZ):           3.39827     0.61015     0.52078
 Zero-point vibrational energy     405739.3 (Joules/Mol)
                                   96.97403 (Kcal/Mol)
 Warning -- explicit consideration of  14 degrees of freedom as
           vibrations may cause significant error
 Vibrational temperatures:     48.53   132.03   167.36   168.21   210.69
          (Kelvin)            242.75   325.56   357.44   467.70   472.71
                              625.84   705.20   755.66   785.54   909.50
                              972.87  1032.93  1113.07  1217.72  1250.91
                             1352.57  1401.17  1486.32  1505.09  1533.88
                             1619.54  1640.72  1694.96  1702.72  1705.57
                             1726.43  1766.02  1791.45  1804.11  1859.30
                             1910.34  2037.47  2109.83  2143.28  2160.97
                             2180.08  2207.71  2289.01  2320.65  2352.43
                             3959.52  3990.56  4287.19  4344.56  4472.95
                             4539.66  4556.85  4580.36  4602.87

 Zero-point correction=                           0.154538 (Hartree/Particle)
 Thermal correction to Energy=                    0.165332
 Thermal correction to Enthalpy=                  0.166276
 Thermal correction to Gibbs Free Energy=         0.117323
 Sum of electronic and zero-point Energies=           -468.028936
 Sum of electronic and thermal Energies=              -468.018142
 Sum of electronic and thermal Enthalpies=            -468.017198
 Sum of electronic and thermal Free Energies=         -468.066151

                     E (Thermal)             CV                S
                      KCal/Mol        Cal/Mol-Kelvin    Cal/Mol-Kelvin
 Total                  103.747             38.476            103.031
 Electronic               0.000              0.000              0.000
 Translational            0.889              2.981             40.807
 Rotational               0.889              2.981             30.077
 Vibrational            101.970             32.514             32.148
 Vibration     1          0.594              1.983              5.597
 Vibration     2          0.602              1.955              3.622
 Vibration     3          0.608              1.936              3.161
 Vibration     4          0.608              1.935              3.151
 Vibration     5          0.617              1.907              2.718
 Vibration     6          0.625              1.881              2.450
 Vibration     7          0.650              1.801              1.908
 Vibration     8          0.662              1.765              1.742
 Vibration     9          0.709              1.625              1.284
 Vibration    10          0.712              1.618              1.267
 Vibration    11          0.796              1.394              0.843
 Vibration    12          0.846              1.272              0.683
 Vibration    13          0.880              1.194              0.598
 Vibration    14          0.901              1.148              0.553

 Optimization completed.
    -- Stationary point found.
 Normal termination of Gaussian 09 at Sat Oct  2 20:15:49 2021.
 Gaussian 09:  AM64L-G09RevA.02 11-Jun-2009

 ----------------------------------------------------------------------
 #p TD(NStates=10, Root=1) b3lyp/6-31G* volume pop=NPA density=current
 Geom=AllCheck Guess=Read
 ----------------------------------------------------------------------

 COCOc1ccccc1[Li]_conf_0
 -----------------------
 Redundant internal coordinates taken from checkpoint file:
 C8H9LiO2_fd05_conf_0.chk
 Charge =  0 Multiplicity = 1

                         Standard orientation:
 ---------------------------------------------------------------------
 Center     Atomic      Atomic             Coordinates (Angstroms)
 Number     Number       Type             X           Y           Z
 ---------------------------------------------------------------------
      1          6           0       -4.056705    0.217824    0.000078
      2          8           0       -2.914681   -0.610096   -0.000270
      3          6           0       -1.725109    0.119262   -0.000052
      4          8           0       -0.700435   -0.796069    0.000164
      5          6           0        0.617975   -0.314472    0.000067
      6          6           0        1.569665   -1.341487    0.000055
      7          6           0        2.918978   -1.003789   -0.000013
      8          6           0        3.295367    0.343339   -0.000070
      9          6           0        2.309213    1.331465   -0.000047
     10          6           0        0.920056    1.057023    0.000028
     11          3           0       -0.528719    2.382916    0.000138
     12          1           0       -4.927003   -0.441219   -0.000688
     13          1           0       -4.098146    0.860607   -0.895489
     14          1           0       -4.098599    0.859216    0.896608
     15          1           0       -1.686847    0.773419    0.909683
     16          1           0       -1.686505    0.773346   -0.909814
     17          1           0        1.242693   -2.377989    0.000095
     18          1           0        3.672258   -1.788221   -0.000026
     19          1           0        4.349115    0.615076   -0.000126
     20          1           0        2.643482    2.371345   -0.000089
 ---------------------------------------------------------------------

 SCF Done:  E(RB3LYP) =  -468.183473842     A.U. after    1 cycles

 Excitation energies and oscillator strengths:

 Excited State   1:      Singlet-A      2.9660 eV  418.02 nm  f=0.0063  <S**2>=0.000
      38 -> 39         0.70059
 This state for optimization and/or second-order correction.
 Total Energy, E(TD-HF/TD-KS) =  -468.074477083
 Copying the excited state density for this state as the 1-particle RhoCI density.

 Excited State   2:      Singlet-A      3.1147 eV  398.06 nm  f=0.0245  <S**2>=0.000
      37 -> 39         0.70540

 Excited State   3:      Singlet-A      3.4937 eV  354.88 nm  f=0.0031  <S**2>=0.000
      36 -> 39         0.70004

 Excited State   4:      Singlet-A      4.4593 eV  278.04 nm  f=0.0604  <S**2>=0.000
      38 -> 40         0.69400

 Excited State   5:      Singlet-A      4.5005 eV  275.49 nm  f=0.0343  <S**2>=0.000
      37 -> 40         0.69878

 Excited State   6:      Singlet-A      4.7557 eV  260.71 nm  f=0.0042  <S**2>=0.000
      38 -> 41         0.69673

 Excited State   7:      Singlet-A      4.8809 eV  254.02 nm  f=0.0219  <S**2>=0.000
      36 -> 40        -0.10922
      37 -> 41         0.68477

 Excited State   8:      Singlet-A      4.9794 eV  248.99 nm  f=0.0795  <S**2>=0.000
      36 -> 40         0.67550
      37 -> 41         0.12836
      38 -> 42        -0.12180

 Excited State   9:      Singlet-A      5.1732 eV  239.67 nm  f=0.0166  <S**2>=0.000
      35 -> 39         0.68509
      36 -> 41        -0.15649

 Excited State  10:      Singlet-A      5.2522 eV  236.06 nm  f=0.0005  <S**2>=0.000
      35 -> 39         0.15109
      36 -> 41         0.67812

 The electronic state is 1-A.
 Alpha  occ. eigenvalues --  -19.16967 -19.15905 -10.30340 -10.24872 -10.20847
 Alpha  occ. eigenvalues --  -10.15674 -10.15166 -10.15113 -10.14839 -10.11442
 Alpha  occ. eigenvalues --   -2.00654  -1.08450  -1.02583  -0.80758  -0.74316
 Alpha  occ. eigenvalues --   -0.69934  -0.68779  -0.65236  -0.57191  -0.56342
 Alpha  occ. eigenvalues --   -0.51758  -0.51420  -0.49543  -0.45303  -0.44094
 Alpha  occ. eigenvalues --   -0.43122  -0.41181  -0.39162  -0.35838  -0.34982
 Alpha  occ. eigenvalues --   -0.34922  -0.33972  -0.30542  -0.29594  -0.27445
 Alpha  occ. eigenvalues --   -0.20806  -0.20157  -0.18956
 Alpha virt. eigenvalues --   -0.05514  -0.00158   0.01088   0.03873   0.04944
 Alpha virt. eigenvalues --    0.05388   0.07944   0.11234   0.11671   0.12183
 Alpha virt. eigenvalues --    0.12931   0.14340   0.15755   0.16622   0.18418

 Mulliken atomic charges:
              1
     1  C   -0.218524
     2  O   -0.472374
     3  C    0.204275
     4  O   -0.436781
     5  C    0.344313
     6  C   -0.147304
     7  C   -0.129750
     8  C   -0.063278
     9  C   -0.222629
    10  C   -0.066483
    11  Li  -0.384763
    12  H    0.166657
    13  H    0.166804
    14  H    0.166762
    15  H    0.202141
    16  H    0.202138
    17  H    0.177981
    18  H    0.170237
    19  H    0.174696
    20  H    0.165881
 Sum of Mulliken atomic charges =  -0.00000

 Dipole moment (field-independent basis, Debye):
    X=              5.0849    Y=             -5.8495    Z=             -0.0003  Tot=              7.7506
 Quadrupole moment (field-independent basis, Debye-Ang):
   XX=            -46.6139   YY=            -88.1844   ZZ=            -67.9518
   XY=              5.7647   XZ=             -0.0007   YZ=             -0.0018

 Summary of Natural Population Analysis:

                                       Natural Population
                Natural  -----------------------------------------------
    Atom  No    Charge         Core      Valence    Rydberg      Total
 -----------------------------------------------------------------------
      C    1   -0.32255      1.99944     4.30825    0.01486     6.32255
      O    2   -0.56069      1.99978     6.54781    0.01310     8.56069
      C    3    0.21155      1.99934     3.75904    0.03008     5.78845
      O    4   -0.44361      1.99972     6.43120    0.01268     8.44361
      C    5    0.40259      1.99871     3.57667    0.02202     5.59741
      C    6   -0.24973      1.99901     4.23611    0.01461     6.24973
      C    7   -0.21582      1.99912     4.20267    0.01403     6.21582
      C    8   -0.10136      1.99907     4.08928    0.01302     6.10136
      C    9   -0.26829      1.99916     4.25266    0.01647     6.26829
      C   10   -0.42336      1.99918     4.40376    0.02043     6.42336
     Li   11   -0.06091      1.99810     1.05873    0.00408     3.06091
      H   12    0.22594      0.00000     0.77326    0.00081     0.77406
      H   13    0.20610      0.00000     0.79171    0.00219     0.79390
      H   14    0.20608      0.00000     0.79172    0.00219     0.79392
      H   15    0.19257      0.00000     0.80714    0.00029     0.80743
      H   16    0.19258      0.00000     0.80713    0.00029     0.80742
      H   17    0.26166      0.00000     0.73724    0.00110     0.73834
      H   18    0.25333      0.00000     0.74622    0.00046     0.74667
      H   19    0.24668      0.00000     0.75263    0.00069     0.75332
      H   20    0.24678      0.00000     0.75226    0.00096     0.75322
 =======================================================================
   * Total *   -0.00046     21.99063    53.82547    0.18436    76.00046

 Normal termination of Gaussian 09 at Sat Oct  2 23:41:17 2021.
