 Gaussian 09, Revision A.02,

 -----------------------------------
 #p opt b3lyp/6-31G* scf=(xqc,tight)
 -----------------------------------

 ---------------------------
 Br[Mg]c1cc(C)cc(c1)C_conf_0
 ---------------------------
 Symbolic Z-matrix:
 Charge =  0 Multiplicity = 1

 SCF Done:  E(RB3LYP) =  -3082.13645881     A.U. after   13 cycles
 SCF Done:  E(RB3LYP) =  -3082.14791366     A.U. after   12 cycles
 SCF Done:  E(RB3LYP) =  -3082.15173304     A.U. after   14 cycles
 SCF Done:  E(RB3LYP) =  -3082.14503832     A.U. after   15 cycles
 SCF Done:  E(RB3LYP) =  -3082.15194525     A.U. after   14 cycles
 SCF Done:  E(RB3LYP) =  -3082.15206813     A.U. after    9 cycles
 SCF Done:  E(RB3LYP) =  -3082.15208295     A.U. after    8 cycles
 SCF Done:  E(RB3LYP) =  -3082.15208361     A.U. after    7 cycles
 SCF Done:  E(RB3LYP) =  -3082.15208412     A.U. after   14 cycles
 SCF Done:  E(RB3LYP) =  -3082.15208462     A.U. after   14 cycles
 SCF Done:  E(RB3LYP) =  -3082.15208505     A.U. after    7 cycles
 SCF Done:  E(RB3LYP) =  -3082.15208511     A.U. after    6 cycles
 Optimization completed.
    -- Stationary point found.
 Normal termination of Gaussian 09 at Sun Oct  3 13:09:57 2021.

 ----------------------------------------------------------------------
 #p freq b3lyp/6-31G* volume NMR pop=NPA density=current Geom=AllCheck
 Guess=Read
 ----------------------------------------------------------------------

 Br[Mg]c1cc(C)cc(c1)C_conf_0
 ---------------------------
 Redundant internal coordinates taken from checkpoint file:
 C8H9BrMg_0e86_conf_0.chk
 Charge =  0 Multiplicity = 1

 SCF Done:  E(RB3LYP) =  -3082.15208511     A.U. after    1 cycles

  1  Br   Isotropic =  2948.2804   Anisotropy =   251.5445

  2  Mg   Isotropic =   517.6974   Anisotropy =   279.1877

  3  C    Isotropic =    51.8309   Anisotropy =   186.2589

  4  C    Isotropic =    57.0000   Anisotropy =   136.6918

  5  C    Isotropic =    59.6758   Anisotropy =   173.8429

  6  C    Isotropic =   167.6868   Anisotropy =    34.8365

  7  C    Isotropic =    64.5996   Anisotropy =   136.5991

  8  C    Isotropic =    59.5425   Anisotropy =   175.1446

  9  C    Isotropic =    56.8758   Anisotropy =   147.7237

 10  C    Isotropic =   167.5945   Anisotropy =    35.0003

 11  H    Isotropic =    25.1670   Anisotropy =     9.2039

 12  H    Isotropic =    30.6160   Anisotropy =     6.9536

 13  H    Isotropic =    29.9011   Anisotropy =     7.7276

 14  H    Isotropic =    29.9013   Anisotropy =     7.7271

 15  H    Isotropic =    25.3231   Anisotropy =     8.9785

 16  H    Isotropic =    25.0019   Anisotropy =     9.7526

 17  H    Isotropic =    30.5788   Anisotropy =     6.9056

 18  H    Isotropic =    29.8700   Anisotropy =     7.7178

 19  H    Isotropic =    29.8700   Anisotropy =     7.7177

  Exact polarizability: 178.253  -0.590 129.287  -0.001  -0.000  71.276
 Approx polarizability: 243.622  -1.284 198.169  -0.003  -0.000 105.331

 ******    1 imaginary frequencies (negative Signs) ******

                     1                      2                      3
                     A                      A                      A
 Frequencies --   -25.8885                23.3863                37.4424
 Red. masses --     1.0253                 1.0282                 5.9277
 Frc consts  --     0.0004                 0.0003                 0.0049
 IR Inten    --     0.1217                 0.1293                 1.7770

                     4                      5                      6
                     A                      A                      A
 Frequencies --    50.3008               167.2743               168.9898
 Red. masses --     6.8167                10.5124                 9.2796
 Frc consts  --     0.0102                 0.1733                 0.1561
 IR Inten    --     1.3140                28.1198                 0.4170

                     7                      8                      9
                     A                      A                      A
 Frequencies --   172.0840               207.3955               220.5501
 Red. masses --     6.4276                 3.3174                 2.8903
 Frc consts  --     0.1121                 0.0841                 0.0828
 IR Inten    --    33.8005                 2.6958                 0.2147

                    10                     11                     12
                     A                      A                      A
 Frequencies --   279.1467               417.4579               482.2004
 Red. masses --     2.7061                 2.6587                16.1118
 Frc consts  --     0.1242                 0.2730                 2.2072
 IR Inten    --     0.0371                 1.7397               115.5052

                    13                     14                     15
                     A                      A                      A
 Frequencies --   486.5709               518.6714               525.0428
 Red. masses --     4.3942                 3.0534                 5.1955
 Frc consts  --     0.6129                 0.4840                 0.8439
 IR Inten    --     3.7837                 0.0005                 2.3981

                    16                     17                     18
                     A                      A                      A
 Frequencies --   549.8492               718.3862               812.4554
 Red. masses --     4.8491                 2.7169                 7.1830
 Frc consts  --     0.8638                 0.8261                 2.7935
 IR Inten    --     5.4193                 5.6483                 5.8337

                    19                     20                     21
                     A                      A                      A
 Frequencies --   862.0035               911.2834               914.5571
 Red. masses --     1.2984                 1.3269                 1.3219
 Frc consts  --     0.5684                 0.6492                 0.6514
 IR Inten    --    12.3341                 0.0527                 0.0647

                    22                     23                     24
                     A                      A                      A
 Frequencies --   950.6449              1007.4076              1015.8512
 Red. masses --     3.6615                 5.5074                 1.4405
 Frc consts  --     1.9496                 3.2931                 0.8759
 IR Inten    --     0.4331                 7.2340                 3.7691

                    25                     26                     27
                     A                      A                      A
 Frequencies --  1045.6157              1074.6110              1075.8563
 Red. masses --     1.5732                 1.5047                 1.5322
 Frc consts  --     1.0134                 1.0238                 1.0449
 IR Inten    --     1.0077                 0.0192                 8.1909

                    28                     29                     30
                     A                      A                      A
 Frequencies --  1165.9341              1203.5714              1279.3879
 Red. masses --     1.9232                 1.5679                 3.5294
 Frc consts  --     1.5404                 1.3382                 3.4038
 IR Inten    --     9.7432                 1.3555                 0.9465

                    31                     32                     33
                     A                      A                      A
 Frequencies --  1313.8386              1359.0801              1433.1120
 Red. masses --     4.4039                 1.3216                 3.0050
 Frc consts  --     4.4789                 1.4383                 3.6363
 IR Inten    --     2.2625                 0.0081                12.0455

                    34                     35                     36
                     A                      A                      A
 Frequencies --  1441.0989              1443.5323              1477.5835
 Red. masses --     1.2290                 1.2678                 2.0539
 Frc consts  --     1.5038                 1.5565                 2.6420
 IR Inten    --     0.0500                 0.4671                 1.5485

                    37                     38                     39
                     A                      A                      A
 Frequencies --  1515.0309              1515.9076              1527.0572
 Red. masses --     1.0449                 1.0443                 1.0781
 Frc consts  --     1.4131                 1.4139                 1.4812
 IR Inten    --     9.1293                 0.9512                 7.7023

                    40                     41                     42
                     A                      A                      A
 Frequencies --  1533.6767              1620.6096              1645.3420
 Red. masses --     1.2303                 4.8541                 4.7687
 Frc consts  --     1.7050                 7.5113                 7.6061
 IR Inten    --     8.7565                 1.1553                14.9289

                    43                     44                     45
                     A                      A                      A
 Frequencies --  3040.7380              3041.4057              3092.0888
 Red. masses --     1.0374                 1.0374                 1.1009
 Frc consts  --     5.6512                 5.6541                 6.2017
 IR Inten    --    45.8561                25.4783                14.4960

                    46                     47                     48
                     A                      A                      A
 Frequencies --  3092.5750              3121.2147              3121.8336
 Red. masses --     1.1009                 1.1003                 1.1004
 Frc consts  --     6.2033                 6.3155                 6.3188
 IR Inten    --    28.7352                 9.3220                17.1434

                    49                     50                     51
                     A                      A                      A
 Frequencies --  3126.7151              3132.0632              3161.7630
 Red. masses --     1.0892                 1.0891                 1.0896
 Frc consts  --     6.2736                 6.2950                 6.4177
 IR Inten    --    28.0811                33.6815                26.8324

 - Thermochemistry -
 -------------------
 Temperature   298.150 Kelvin.  Pressure   1.00000 Atm.
 Atom     1 has atomic number 35 and mass  78.91834

 Molecular mass:   207.97381 amu.
 Principal axes and moments of inertia in atomic units:
                           1         2         3
     Eigenvalues --  1026.499346920.233997924.34523
           X            1.00000  -0.00006  -0.00000
           Y            0.00006   1.00000  -0.00000
           Z            0.00000   0.00000   1.00000
 This molecule is an asymmetric top.
 Rotational symmetry number  1.
 Warning -- assumption of classical behavior for rotation
           may cause significant error
 Rotational temperatures (Kelvin)      0.08438     0.01252     0.01093
 Rotational constants (GHZ):           1.75815     0.26079     0.22775
    1 imaginary frequencies ignored.
 Zero-point vibrational energy     383404.3 (Joules/Mol)
                                   91.63583 (Kcal/Mol)
 Warning -- explicit consideration of  15 degrees of freedom as
           vibrations may cause significant error
 Vibrational temperatures:     33.65    53.87    72.37   240.67   243.14
          (Kelvin)            247.59   298.40   317.32   401.63   600.63
                              693.78   700.07   746.25   755.42   791.11
                             1033.60  1168.94  1240.23  1311.13  1315.84
                             1367.76  1449.43  1461.58  1504.41  1546.12
                             1547.92  1677.52  1731.67  1840.75  1890.32
                             1955.41  2061.93  2073.42  2076.92  2125.91
                             2179.79  2181.05  2197.09  2206.62  2331.69
                             2367.28  4374.94  4375.90  4448.82  4449.52
                             4490.73  4491.62  4498.64  4506.33  4549.07

 Zero-point correction=                           0.146031 (Hartree/Particle)
 Thermal correction to Energy=                    0.156840
 Thermal correction to Enthalpy=                  0.157784
 Thermal correction to Gibbs Free Energy=         0.105778
 Sum of electronic and zero-point Energies=          -3082.006054
 Sum of electronic and thermal Energies=             -3081.995245
 Sum of electronic and thermal Enthalpies=           -3081.994301
 Sum of electronic and thermal Free Energies=        -3082.046307

                     E (Thermal)             CV                S
                      KCal/Mol        Cal/Mol-Kelvin    Cal/Mol-Kelvin
 Total                   98.418             37.066            109.455
 Electronic               0.000              0.000              0.000
 Translational            0.889              2.981             41.901
 Rotational               0.889              2.981             32.398
 Vibrational             96.641             31.104             35.156
 Vibration     1          0.593              1.985              6.324
 Vibration     2          0.594              1.982              5.390
 Vibration     3          0.595              1.977              4.806
 Vibration     4          0.624              1.883              2.466
 Vibration     5          0.625              1.881              2.447
 Vibration     6          0.626              1.877              2.413
 Vibration     7          0.641              1.829              2.066
 Vibration     8          0.647              1.810              1.955
 Vibration     9          0.679              1.712              1.539
 Vibration    10          0.780              1.432              0.901
 Vibration    11          0.838              1.290              0.704
 Vibration    12          0.843              1.280              0.693
 Vibration    13          0.874              1.209              0.613
 Vibration    14          0.880              1.195              0.598
 Vibration    15          0.905              1.140              0.544

 Optimization completed.
    -- Stationary point found.
 Normal termination of Gaussian 09 at Sun Oct  3 14:04:34 2021.
 Gaussian 09:  AM64L-G09RevA.02 11-Jun-2009

 ----------------------------------------------------------------------
 #p TD(NStates=10, Root=1) b3lyp/6-31G* volume pop=NPA density=current
 Geom=AllCheck Guess=Read
 ----------------------------------------------------------------------

 Br[Mg]c1cc(C)cc(c1)C_conf_0
 ---------------------------
 Redundant internal coordinates taken from checkpoint file:
 C8H9BrMg_0e86_conf_0.chk
 Charge =  0 Multiplicity = 1

                         Standard orientation:
 ---------------------------------------------------------------------
 Center     Atomic      Atomic             Coordinates (Angstroms)
 Number     Number       Type             X           Y           Z
 ---------------------------------------------------------------------
      1         35           0       -3.733836   -0.001519   -0.000016
      2         12           0       -1.398791   -0.002684    0.000024
      3          6           0        0.673020   -0.001807    0.000068
      4          6           0        1.413500   -1.203440    0.000038
      5          6           0        2.811799   -1.222547   -0.000012
      6          6           0        3.580280   -2.524575   -0.000019
      7          6           0        3.492601    0.003244   -0.000037
      8          6           0        2.810295    1.221317   -0.000003
      9          6           0        1.406118    1.197873    0.000051
     10          6           0        3.558762    2.535373   -0.000025
     11          1           0        0.898297   -2.164939    0.000059
     12          1           0        2.905379   -3.386630   -0.000229
     13          1           0        4.227835   -2.608714    0.881900
     14          1           0        4.228151   -2.608521   -0.881722
     15          1           0        4.582003    0.005500   -0.000081
     16          1           0        0.888642    2.158695    0.000084
     17          1           0        4.642329    2.379295   -0.000045
     18          1           0        3.309444    3.139034    0.881773
     19          1           0        3.309412    3.139024   -0.881821
 ---------------------------------------------------------------------

 SCF Done:  E(RB3LYP) =  -3082.15208511     A.U. after    1 cycles

 Excitation energies and oscillator strengths:

 Excited State   1:      Singlet-A      4.3590 eV  284.43 nm  f=0.0001  <S**2>=0.000
      52 -> 53         0.70503
 This state for optimization and/or second-order correction.
 Total Energy, E(TD-HF/TD-KS) =  -3081.99189605
 Copying the excited state density for this state as the 1-particle RhoCI density.

 Excited State   2:      Singlet-A      4.5176 eV  274.45 nm  f=0.0098  <S**2>=0.000
      51 -> 53         0.70204

 Excited State   3:      Singlet-A      4.8916 eV  253.46 nm  f=0.0094  <S**2>=0.000
      51 -> 56        -0.28258
      52 -> 54         0.64095

 Excited State   4:      Singlet-A      5.2198 eV  237.53 nm  f=0.0003  <S**2>=0.000
      52 -> 55         0.70489

 Excited State   5:      Singlet-A      5.2822 eV  234.72 nm  f=0.1696  <S**2>=0.000
      50 -> 53         0.63070
      51 -> 54        -0.24855
      51 -> 57        -0.17114

 Excited State   6:      Singlet-A      5.3643 eV  231.13 nm  f=0.3823  <S**2>=0.000
      50 -> 53         0.26455
      51 -> 54         0.63114
      52 -> 56         0.13078

 Excited State   7:      Singlet-A      5.3797 eV  230.47 nm  f=0.0000  <S**2>=0.000
      49 -> 53         0.26767
      50 -> 54         0.37702
      51 -> 55         0.53102

 Excited State   8:      Singlet-A      5.3802 eV  230.45 nm  f=0.0000  <S**2>=0.000
      49 -> 53        -0.31311
      50 -> 54        -0.42665
      51 -> 55         0.46289

 Excited State   9:      Singlet-A      5.4574 eV  227.18 nm  f=0.0342  <S**2>=0.000
      48 -> 53         0.69480
      50 -> 55         0.12483

 Excited State  10:      Singlet-A      5.5049 eV  225.22 nm  f=0.0796  <S**2>=0.000
      49 -> 53         0.57257
      50 -> 54        -0.40846

 The electronic state is 1-A.
 Alpha  occ. eigenvalues -- -482.87773 -61.84002 -56.35733 -56.35596 -56.35591
 Alpha  occ. eigenvalues --  -46.84265 -10.19144 -10.19096 -10.18227 -10.18197
 Alpha  occ. eigenvalues --  -10.18156 -10.18143 -10.18041 -10.16775  -8.54913
 Alpha  occ. eigenvalues --   -6.49659  -6.49263  -6.49252  -3.13063  -2.61336
 Alpha  occ. eigenvalues --   -2.61213  -2.61205  -2.60890  -2.60889  -1.87699
 Alpha  occ. eigenvalues --   -1.87638  -1.87038  -0.84668  -0.77489  -0.74133
 Alpha  occ. eigenvalues --   -0.72408  -0.68624  -0.67233  -0.57354  -0.56423
 Alpha  occ. eigenvalues --   -0.49351  -0.45891  -0.42041  -0.41758  -0.41103
 Alpha  occ. eigenvalues --   -0.39608  -0.39285  -0.37723  -0.36929  -0.33640
 Alpha  occ. eigenvalues --   -0.32956  -0.32641  -0.27949  -0.27915  -0.25747
 Alpha  occ. eigenvalues --   -0.23874  -0.23100
 Alpha virt. eigenvalues --   -0.04266  -0.02426  -0.01256   0.00597   0.02262
 Alpha virt. eigenvalues --    0.06880   0.10766   0.11677   0.12558   0.12713
 Alpha virt. eigenvalues --    0.13632   0.14086   0.15205   0.16365   0.17897

 Mulliken atomic charges:
              1
     1  Br  -0.275121
     2  Mg  -0.138474
     3  C    0.009772
     4  C   -0.201302
     5  C    0.226048
     6  C   -0.546417
     7  C   -0.233897
     8  C    0.217482
     9  C   -0.184561
    10  C   -0.540901
    11  H    0.170785
    12  H    0.191642
    13  H    0.201503
    14  H    0.201490
    15  H    0.148772
    16  H    0.176778
    17  H    0.178298
    18  H    0.199050
    19  H    0.199052
 Sum of Mulliken atomic charges =  -0.00000

 Dipole moment (field-independent basis, Debye):
    X=             15.4565    Y=             -0.0855    Z=              0.0003  Tot=             15.4567
 Quadrupole moment (field-independent basis, Debye-Ang):
   XX=            -82.9359   YY=            -65.5913   ZZ=            -81.1111
   XY=             -0.7858   XZ=             -0.0004   YZ=             -0.0002

 Summary of Natural Population Analysis:

                                       Natural Population
                Natural  -----------------------------------------------
    Atom  No    Charge         Core      Valence    Rydberg      Total
 -----------------------------------------------------------------------
     Br    1   -0.66628     27.99974     7.65628    0.01026    35.66628
     Mg    2    0.59763      9.99820     1.37496    0.02921    11.40237
      C    3   -0.56288      1.99931     4.52867    0.03489     6.56288
      C    4   -0.11462      1.99905     4.10196    0.01360     6.11462
      C    5    0.13252      1.99903     3.85458    0.01387     5.86748
      C    6   -0.71833      1.99938     4.71102    0.00793     6.71833
      C    7   -0.28470      1.99898     4.27310    0.01263     6.28470
      C    8    0.08389      1.99904     3.90294    0.01412     5.91611
      C    9   -0.06393      1.99905     4.05152    0.01336     6.06393
      C   10   -0.71064      1.99939     4.70334    0.00791     6.71064
      H   11    0.23633      0.00000     0.76101    0.00266     0.76367
      H   12    0.25683      0.00000     0.74247    0.00070     0.74317
      H   13    0.27230      0.00000     0.72717    0.00054     0.72770
      H   14    0.27228      0.00000     0.72718    0.00054     0.72772
      H   15    0.24590      0.00000     0.75312    0.00098     0.75410
      H   16    0.23482      0.00000     0.76241    0.00276     0.76518
      H   17    0.25014      0.00000     0.74915    0.00070     0.74986
      H   18    0.26927      0.00000     0.73007    0.00067     0.73073
      H   19    0.26927      0.00000     0.73006    0.00067     0.73073
 =======================================================================
   * Total *   -0.00017     53.99117    49.84101    0.16799   104.00017

 Normal termination of Gaussian 09 at Sun Oct  3 16:37:12 2021.
