 Gaussian 09, Revision A.02,

 -----------------------------------
 #p opt b3lyp/6-31G* scf=(xqc,tight)
 -----------------------------------

 ----------------------------
 Cc1cc(C)c(c(c1)C)[Li]_conf_0
 ----------------------------
 Symbolic Z-matrix:
 Charge =  0 Multiplicity = 1

 SCF Done:  E(RB3LYP) =  -357.085206087     A.U. after   15 cycles
 SCF Done:  E(RB3LYP) =  -357.090112398     A.U. after   12 cycles
 SCF Done:  E(RB3LYP) =  -357.090378344     A.U. after   10 cycles
 SCF Done:  E(RB3LYP) =  -357.090399571     A.U. after   10 cycles
 SCF Done:  E(RB3LYP) =  -357.090400196     A.U. after    7 cycles
 Optimization completed.
    -- Stationary point found.
 Normal termination of Gaussian 09 at Sat Oct  2 12:50:46 2021.

 ----------------------------------------------------------------------
 #p freq b3lyp/6-31G* volume NMR pop=NPA density=current Geom=AllCheck
 Guess=Read
 ----------------------------------------------------------------------

 Cc1cc(C)c(c(c1)C)[Li]_conf_0
 ----------------------------
 Redundant internal coordinates taken from checkpoint file:
 C9H11Li_945d_conf_0.chk
 Charge =  0 Multiplicity = 1

 SCF Done:  E(RB3LYP) =  -357.090400196     A.U. after    1 cycles

  1  C    Isotropic =   167.7651   Anisotropy =    34.4418

  2  C    Isotropic =    62.6907   Anisotropy =   165.7988

  3  C    Isotropic =    70.5828   Anisotropy =   118.0467

  4  C    Isotropic =    50.1859   Anisotropy =   170.4065

  5  C    Isotropic =   158.7478   Anisotropy =    48.9362

  6  C    Isotropic =    28.6551   Anisotropy =   196.5882

  7  C    Isotropic =    49.3411   Anisotropy =   171.8668

  8  C    Isotropic =    73.4903   Anisotropy =   135.6699

  9  C    Isotropic =   154.8605   Anisotropy =    48.3078

 10  Li   Isotropic =    90.7226   Anisotropy =    14.2850

 11  H    Isotropic =    30.6763   Anisotropy =     6.7712

 12  H    Isotropic =    29.9515   Anisotropy =     7.8127

 13  H    Isotropic =    29.9514   Anisotropy =     7.8132

 14  H    Isotropic =    25.8577   Anisotropy =     8.4659

 15  H    Isotropic =    30.3284   Anisotropy =     6.1707

 16  H    Isotropic =    29.8498   Anisotropy =     6.4261

 17  H    Isotropic =    29.8502   Anisotropy =     6.4255

 18  H    Isotropic =    25.6125   Anisotropy =     9.3610

 19  H    Isotropic =    31.2165   Anisotropy =     5.1481

 20  H    Isotropic =    29.3730   Anisotropy =     6.7341

 21  H    Isotropic =    29.3730   Anisotropy =     6.7342

  Exact polarizability: 155.884  -0.672 125.109   0.030  -0.001  67.338
 Approx polarizability: 215.089  -1.992 188.844  -0.000   0.000  96.324

 ******    2 imaginary frequencies (negative Signs) ******

                     1                      2                      3
                     A                      A                      A
 Frequencies --   -72.4887               -53.9877                35.3962
 Red. masses --     1.0405                 1.0309                 1.0874
 Frc consts  --     0.0032                 0.0018                 0.0008
 IR Inten    --     0.0340                 0.1338                 0.7441

                     4                      5                      6
                     A                      A                      A
 Frequencies --    96.5134               101.6874               178.5211
 Red. masses --     4.1013                 6.3630                 2.7537
 Frc consts  --     0.0225                 0.0388                 0.0517
 IR Inten    --    53.2831                81.0629                 4.8738

                     7                      8                      9
                     A                      A                      A
 Frequencies --   207.1769               258.4907               274.0106
 Red. masses --     2.8593                 4.2084                 2.5083
 Frc consts  --     0.0723                 0.1657                 0.1110
 IR Inten    --     1.0254                31.0471                 0.6141

                    10                     11                     12
                     A                      A                      A
 Frequencies --   286.5302               446.7265               479.7616
 Red. masses --     2.5434                 5.6854                 2.6181
 Frc consts  --     0.1230                 0.6685                 0.3551
 IR Inten    --     0.3933                23.2332                 2.1524

                    13                     14                     15
                     A                      A                      A
 Frequencies --   534.3191               539.1098               539.7976
 Red. masses --     3.0998                 5.0886                 3.6219
 Frc consts  --     0.5214                 0.8714                 0.6218
 IR Inten    --     1.3661                 4.6861                 5.3932

                    16                     17                     18
                     A                      A                      A
 Frequencies --   572.4230               613.6943               717.8297
 Red. masses --     4.1763                 5.2584                 3.3497
 Frc consts  --     0.8063                 1.1668                 1.0169
 IR Inten    --     1.2264                28.2606                 0.0414

                    19                     20                     21
                     A                      A                      A
 Frequencies --   867.1106               893.5037               936.6901
 Red. masses --     1.2692                 1.3188                 2.9648
 Frc consts  --     0.5622                 0.6203                 1.5326
 IR Inten    --     6.3597                 0.0295                 0.2778

                    22                     23                     24
                     A                      A                      A
 Frequencies --   952.9735              1014.6422              1031.4508
 Red. masses --     2.8177                 4.0125                 1.9326
 Frc consts  --     1.5077                 2.4338                 1.2114
 IR Inten    --     1.6736                 0.6723                 4.3254

                    25                     26                     27
                     A                      A                      A
 Frequencies --  1034.4626              1042.3673              1055.0425
 Red. masses --     1.9095                 1.4855                 1.4921
 Frc consts  --     1.2040                 0.9510                 0.9786
 IR Inten    --     0.7458                 4.4206                 3.4284

                    28                     29                     30
                     A                      A                      A
 Frequencies --  1065.8503              1071.9128              1194.7887
 Red. masses --     1.5136                 1.5060                 1.4904
 Frc consts  --     1.0131                 1.0195                 1.2536
 IR Inten    --     1.2316                 3.6422                 0.0081

                    31                     32                     33
                     A                      A                      A
 Frequencies --  1253.7973              1296.5313              1316.0050
 Red. masses --     1.6646                 5.5719                 6.0883
 Frc consts  --     1.5417                 5.5184                 6.2124
 IR Inten    --     9.1714                13.9074                10.3024

                    34                     35                     36
                     A                      A                      A
 Frequencies --  1426.1248              1426.3048              1438.3498
 Red. masses --     1.2610                 1.3441                 1.2763
 Frc consts  --     1.5110                 1.6111                 1.5558
 IR Inten    --     0.0402                 2.0894                 1.0843

                    37                     38                     39
                     A                      A                      A
 Frequencies --  1442.0984              1449.6964              1498.7563
 Red. masses --     2.5161                 2.7117                 1.0448
 Frc consts  --     3.0829                 3.3577                 1.3827
 IR Inten    --     8.7632                 1.6291                 0.8170

                    40                     41                     42
                     A                      A                      A
 Frequencies --  1515.6245              1516.3773              1519.7814
 Red. masses --     1.0463                 1.0470                 1.1261
 Frc consts  --     1.4161                 1.4185                 1.5325
 IR Inten    --     0.0065                10.3278                16.8381

                    43                     44                     45
                     A                      A                      A
 Frequencies --  1522.5662              1527.4199              1595.6801
 Red. masses --     1.0941                 1.1321                 4.8270
 Frc consts  --     1.4944                 1.5561                 7.2413
 IR Inten    --     7.0412                18.3862                23.9953

                    46                     47                     48
                     A                      A                      A
 Frequencies --  1641.3348              3005.2281              3006.5871
 Red. masses --     4.8590                 1.0396                 1.0398
 Frc consts  --     7.7124                 5.5319                 5.5378
 IR Inten    --     4.9547                67.5784                54.1259

                    49                     50                     51
                     A                      A                      A
 Frequencies --  3033.3748              3047.2152              3060.8135
 Red. masses --     1.0375                 1.1006                 1.0957
 Frc consts  --     5.6245                 6.0213                 6.0481
 IR Inten    --    50.7100                36.8262                51.6759

                    52                     53                     54
                     A                      A                      A
 Frequencies --  3072.3012              3081.5106              3097.4904
 Red. masses --     1.1010                 1.1007                 1.0960
 Frc consts  --     6.1229                 6.1582                 6.1958
 IR Inten    --    26.4360                30.8557                25.5736

                    55                     56                     57
                     A                      A                      A
 Frequencies --  3113.1402              3131.5344              3141.2991
 Red. masses --     1.1002                 1.0888                 1.0890
 Frc consts  --     6.2822                 6.2912                 6.3316
 IR Inten    --    16.0914                48.9122                51.1236

 - Thermochemistry -
 -------------------
 Temperature   298.150 Kelvin.  Pressure   1.00000 Atm.
 Atom     1 has atomic number  6 and mass  12.00000

 Molecular mass:   126.10208 amu.
 Principal axes and moments of inertia in atomic units:
                           1         2         3
     Eigenvalues --  1042.804701295.781072304.91412
           X            0.99995  -0.00960  -0.00000
           Y            0.00960   0.99995  -0.00000
           Z            0.00000   0.00000   1.00000
 This molecule is an asymmetric top.
 Rotational symmetry number  1.
 Warning -- assumption of classical behavior for rotation
           may cause significant error
 Rotational temperatures (Kelvin)      0.08306     0.06684     0.03758
 Rotational constants (GHZ):           1.73066     1.39278     0.78300
    2 imaginary frequencies ignored.
 Zero-point vibrational energy     449913.9 (Joules/Mol)
                                  107.53200 (Kcal/Mol)
 Warning -- explicit consideration of  15 degrees of freedom as
           vibrations may cause significant error
 Vibrational temperatures:     50.93   138.86   146.31   256.85   298.08
          (Kelvin)            371.91   394.24   412.25   642.74   690.27
                              768.77   775.66   776.65   823.59   882.97
                             1032.80  1247.58  1285.55  1347.69  1371.11
                             1459.84  1484.03  1488.36  1499.73  1517.97
                             1533.52  1542.24  1719.03  1803.93  1865.42
                             1893.44  2051.87  2052.13  2069.46  2074.86
                             2085.79  2156.37  2180.64  2181.73  2186.62
                             2190.63  2197.61  2295.82  2361.51  4323.85
                             4325.80  4364.34  4384.26  4403.82  4420.35
                             4433.60  4456.59  4479.11  4505.57  4519.62

 Zero-point correction=                           0.171363 (Hartree/Particle)
 Thermal correction to Energy=                    0.181120
 Thermal correction to Enthalpy=                  0.182065
 Thermal correction to Gibbs Free Energy=         0.135817
 Sum of electronic and zero-point Energies=           -356.919037
 Sum of electronic and thermal Energies=              -356.909280
 Sum of electronic and thermal Enthalpies=            -356.908336
 Sum of electronic and thermal Free Energies=         -356.954583

                     E (Thermal)             CV                S
                      KCal/Mol        Cal/Mol-Kelvin    Cal/Mol-Kelvin
 Total                  113.655             35.679             97.336
 Electronic               0.000              0.000              0.000
 Translational            0.889              2.981             40.409
 Rotational               0.889              2.981             29.522
 Vibrational            111.877             29.718             27.404
 Vibration     1          0.594              1.982              5.501
 Vibration     2          0.603              1.952              3.524
 Vibration     3          0.604              1.948              3.422
 Vibration     4          0.629              1.869              2.344
 Vibration     5          0.641              1.830              2.068
 Vibration     6          0.667              1.748              1.672
 Vibration     7          0.676              1.721              1.571
 Vibration     8          0.684              1.699              1.494
 Vibration     9          0.806              1.368              0.806
 Vibration    10          0.836              1.295              0.711
 Vibration    11          0.889              1.174              0.578
 Vibration    12          0.894              1.164              0.567
 Vibration    13          0.895              1.162              0.566
 Vibration    14          0.929              1.091              0.500
 Vibration    15          0.973              1.003              0.427

 Normal termination of Gaussian 09 at Sat Oct  2 13:59:26 2021.
 Gaussian 09:  AM64L-G09RevA.02 11-Jun-2009

 ----------------------------------------------------------------------
 #p TD(NStates=10, Root=1) b3lyp/6-31G* volume pop=NPA density=current
 Geom=AllCheck Guess=Read
 ----------------------------------------------------------------------

 Cc1cc(C)c(c(c1)C)[Li]_conf_0
 ----------------------------
 Redundant internal coordinates taken from checkpoint file:
 C9H11Li_945d_conf_0.chk
 Charge =  0 Multiplicity = 1

                         Standard orientation:
 ---------------------------------------------------------------------
 Center     Atomic      Atomic             Coordinates (Angstroms)
 Number     Number       Type             X           Y           Z
 ---------------------------------------------------------------------
      1          6           0       -3.034647   -0.073106    0.000008
      2          6           0       -1.522566   -0.038717   -0.000007
      3          6           0       -0.770569   -1.219702   -0.000013
      4          6           0        0.628579   -1.189403   -0.000008
      5          6           0        1.381884   -2.509260    0.000006
      6          6           0        1.347263    0.030912   -0.000001
      7          6           0        0.572923    1.212480    0.000004
      8          6           0       -0.830785    1.173714    0.000000
      9          6           0        1.231152    2.582162   -0.000002
     10          3           0        3.329941    0.075978    0.000009
     11          1           0       -3.409630   -1.102238   -0.000193
     12          1           0       -3.451566    0.431766   -0.881339
     13          1           0       -3.451540    0.431404    0.881578
     14          1           0       -1.293659   -2.176483   -0.000023
     15          1           0        0.707327   -3.373586   -0.000169
     16          1           0        2.027527   -2.604610    0.885749
     17          1           0        2.027810   -2.604466   -0.885545
     18          1           0       -1.397894    2.106242   -0.000000
     19          1           0        2.327980    2.498987    0.000076
     20          1           0        0.952151    3.175320    0.881781
     21          1           0        0.952271    3.175254   -0.881867
 ---------------------------------------------------------------------

 SCF Done:  E(RB3LYP) =  -357.090400196     A.U. after    2 cycles

 Excitation energies and oscillator strengths:

 Excited State   1:      Singlet-A      3.0310 eV  409.06 nm  f=0.1120  <S**2>=0.000
      34 -> 35         0.70441
 This state for optimization and/or second-order correction.
 Total Energy, E(TD-HF/TD-KS) =  -356.979013998
 Copying the excited state density for this state as the 1-particle RhoCI density.

 Excited State   2:      Singlet-A      3.0627 eV  404.81 nm  f=0.0061  <S**2>=0.000
      33 -> 35         0.70248

 Excited State   3:      Singlet-A      3.3685 eV  368.07 nm  f=0.0003  <S**2>=0.000
      32 -> 35         0.70423

 Excited State   4:      Singlet-A      4.0767 eV  304.13 nm  f=0.0735  <S**2>=0.000
      34 -> 36         0.70496

 Excited State   5:      Singlet-A      4.3405 eV  285.65 nm  f=0.0528  <S**2>=0.000
      33 -> 36        -0.27180
      34 -> 37         0.64387

 Excited State   6:      Singlet-A      4.3937 eV  282.18 nm  f=0.1115  <S**2>=0.000
      33 -> 36         0.64477
      34 -> 37         0.27120

 Excited State   7:      Singlet-A      4.5028 eV  275.35 nm  f=0.0256  <S**2>=0.000
      32 -> 36         0.66973
      33 -> 38         0.20087

 Excited State   8:      Singlet-A      4.5569 eV  272.08 nm  f=0.0001  <S**2>=0.000
      33 -> 37         0.70421

 Excited State   9:      Singlet-A      4.8175 eV  257.36 nm  f=0.0002  <S**2>=0.000
      32 -> 37         0.70484

 Excited State  10:      Singlet-A      4.9667 eV  249.63 nm  f=0.0025  <S**2>=0.000
      34 -> 38         0.70280

 The electronic state is 1-A.
 Alpha  occ. eigenvalues --  -10.16080 -10.15944 -10.15796 -10.15676 -10.15206
 Alpha  occ. eigenvalues --  -10.15073 -10.14238 -10.14148 -10.10571  -1.99759
 Alpha  occ. eigenvalues --   -0.81056  -0.74030  -0.73753  -0.66982  -0.64364
 Alpha  occ. eigenvalues --   -0.62721  -0.52827  -0.52509  -0.43504  -0.43430
 Alpha  occ. eigenvalues --   -0.39734  -0.39247  -0.38848  -0.38648  -0.37659
 Alpha  occ. eigenvalues --   -0.37280  -0.35840  -0.33110  -0.32137  -0.29324
 Alpha  occ. eigenvalues --   -0.28743  -0.19522  -0.18817  -0.18663
 Alpha virt. eigenvalues --   -0.04848  -0.00397   0.00640   0.04128   0.05522
 Alpha virt. eigenvalues --    0.06153   0.10651   0.11381   0.13132   0.13249
 Alpha virt. eigenvalues --    0.14922   0.16086   0.16676   0.17814   0.18211

 Mulliken atomic charges:
              1
     1  C   -0.534545
     2  C    0.187105
     3  C   -0.212976
     4  C    0.114214
     5  C   -0.553069
     6  C   -0.216615
     7  C    0.110552
     8  C   -0.194584
     9  C   -0.555119
    10  Li  -0.016570
    11  H    0.162549
    12  H    0.172082
    13  H    0.172089
    14  H    0.136101
    15  H    0.166686
    16  H    0.188863
    17  H    0.188857
    18  H    0.134560
    19  H    0.190601
    20  H    0.179609
    21  H    0.179610
 Sum of Mulliken atomic charges =  -0.00000

 Dipole moment (field-independent basis, Debye):
    X=             -7.3953    Y=             -0.1468    Z=             -0.0001  Tot=              7.3968
 Quadrupole moment (field-independent basis, Debye-Ang):
   XX=            -97.1603   YY=            -53.1550   ZZ=            -63.2380
   XY=             -1.7101   XZ=             -0.0005   YZ=             -0.0001

 Summary of Natural Population Analysis:

                                       Natural Population
                Natural  -----------------------------------------------
    Atom  No    Charge         Core      Valence    Rydberg      Total
 -----------------------------------------------------------------------
      C    1   -0.69090      1.99938     4.68417    0.00735     6.69090
      C    2   -0.00120      1.99902     3.98790    0.01428     6.00120
      C    3   -0.23062      1.99890     4.22034    0.01138     6.23062
      C    4   -0.07656      1.99898     4.06188    0.01570     6.07656
      C    5   -0.69286      1.99940     4.68608    0.00738     6.69286
      C    6   -0.13413      1.99864     4.11624    0.01925     6.13413
      C    7   -0.07660      1.99899     4.06208    0.01553     6.07660
      C    8   -0.22900      1.99890     4.21859    0.01152     6.22900
      C    9   -0.68500      1.99940     4.67798    0.00762     6.68500
     Li   10    0.10197      1.99566     0.90022    0.00216     2.89803
      H   11    0.24081      0.00000     0.75842    0.00077     0.75919
      H   12    0.24913      0.00000     0.75006    0.00080     0.75087
      H   13    0.24914      0.00000     0.75006    0.00080     0.75086
      H   14    0.24337      0.00000     0.75542    0.00121     0.75663
      H   15    0.24574      0.00000     0.75351    0.00075     0.75426
      H   16    0.24989      0.00000     0.74949    0.00062     0.75011
      H   17    0.24988      0.00000     0.74950    0.00062     0.75012
      H   18    0.24308      0.00000     0.75572    0.00120     0.75692
      H   19    0.23372      0.00000     0.76628    0.00000     0.76628
      H   20    0.25231      0.00000     0.74689    0.00080     0.74769
      H   21    0.25231      0.00000     0.74689    0.00080     0.74769
 =======================================================================
   * Total *   -0.00552     19.98726    47.89770    0.12055    68.00552

 Normal termination of Gaussian 09 at Sat Oct  2 17:29:23 2021.
