 Gaussian 09, Revision A.02,

 -----------------------------------
 #p opt b3lyp/6-31G* scf=(xqc,tight)
 -----------------------------------

 -----------------------------------
 CC(n1cc[n+](c1)C(C)C)C.[Cl-]_conf_0
 -----------------------------------
 Symbolic Z-matrix:
 Charge =  0 Multiplicity = 1

 SCF Done:  E(RB3LYP) =  -922.876245336     A.U. after   15 cycles
 SCF Done:  E(RB3LYP) =  -922.880762285     A.U. after   12 cycles
 SCF Done:  E(RB3LYP) =  -922.884237380     A.U. after   13 cycles
 SCF Done:  E(RB3LYP) =  -922.885734386     A.U. after   12 cycles
 SCF Done:  E(RB3LYP) =  -922.889094511     A.U. after   12 cycles
 SCF Done:  E(RB3LYP) =  -922.891305381     A.U. after   12 cycles
 SCF Done:  E(RB3LYP) =  -922.892313795     A.U. after   12 cycles
 SCF Done:  E(RB3LYP) =  -922.893330128     A.U. after   12 cycles
 SCF Done:  E(RB3LYP) =  -922.894673741     A.U. after   12 cycles
 SCF Done:  E(RB3LYP) =  -922.895565853     A.U. after   14 cycles
 SCF Done:  E(RB3LYP) =  -922.901441735     A.U. after    6 cycles
 SCF Done:  E(RB3LYP) =  -922.901441689     A.U. after    7 cycles
 SCF Done:  E(RB3LYP) =  -922.901441780     A.U. after    7 cycles
 SCF Done:  E(RB3LYP) =  -922.901441901     A.U. after    8 cycles
 SCF Done:  E(RB3LYP) =  -922.901442131     A.U. after    7 cycles
 SCF Done:  E(RB3LYP) =  -922.901442345     A.U. after    8 cycles
 SCF Done:  E(RB3LYP) =  -922.901442434     A.U. after    7 cycles
 SCF Done:  E(RB3LYP) =  -922.901442483     A.U. after    7 cycles
 Optimization completed.
    -- Stationary point found.
 Normal termination of Gaussian 09 at Sat Oct  2 16:48:44 2021.

 ----------------------------------------------------------------------
 #p freq b3lyp/6-31G* volume NMR pop=NPA density=current Geom=AllCheck
 Guess=Read
 ----------------------------------------------------------------------

 CC(n1cc[n+](c1)C(C)C)C.[Cl-]_conf_0
 -----------------------------------
 Redundant internal coordinates taken from checkpoint file:
 C9H17ClN2_6d1c_conf_0.chk
 Charge =  0 Multiplicity = 1

 SCF Done:  E(RB3LYP) =  -922.901442483     A.U. after    1 cycles

  1  C    Isotropic =   168.8662   Anisotropy =    29.2822

  2  C    Isotropic =   137.9398   Anisotropy =    43.3308

  3  N    Isotropic =    88.5973   Anisotropy =   123.3171

  4  C    Isotropic =    79.2705   Anisotropy =    99.6825

  5  C    Isotropic =    79.2742   Anisotropy =    99.6817

  6  N    Isotropic =    88.6009   Anisotropy =   123.3061

  7  C    Isotropic =    65.3308   Anisotropy =   106.0454

  8  C    Isotropic =   137.9479   Anisotropy =    43.3288

  9  C    Isotropic =   168.8700   Anisotropy =    29.2760

 10  C    Isotropic =   169.3840   Anisotropy =    27.5783

 11  C    Isotropic =   169.3870   Anisotropy =    27.5697

 12  Cl   Isotropic =   955.9106   Anisotropy =   248.1156

 13  H    Isotropic =    30.6171   Anisotropy =     8.7169

 14  H    Isotropic =    31.0032   Anisotropy =     7.2973

 15  H    Isotropic =    30.9493   Anisotropy =     9.5499

 16  H    Isotropic =    27.9027   Anisotropy =     4.6506

 17  H    Isotropic =    25.7516   Anisotropy =     4.6973

 18  H    Isotropic =    25.7515   Anisotropy =     4.6991

 19  H    Isotropic =    23.0449   Anisotropy =     5.3127

 20  H    Isotropic =    27.9022   Anisotropy =     4.6500

 21  H    Isotropic =    31.0029   Anisotropy =     7.2982

 22  H    Isotropic =    30.6167   Anisotropy =     8.7173

 23  H    Isotropic =    30.9494   Anisotropy =     9.5499

 24  H    Isotropic =    31.1590   Anisotropy =     6.7633

 25  H    Isotropic =    31.0402   Anisotropy =     9.4163

 26  H    Isotropic =    29.0107   Anisotropy =     8.4681

 27  H    Isotropic =    31.1594   Anisotropy =     6.7643

 28  H    Isotropic =    29.0061   Anisotropy =     8.4787

 29  H    Isotropic =    31.0404   Anisotropy =     9.4160

  Exact polarizability: 144.720   0.003 123.432   0.003   2.909  94.397
 Approx polarizability: 187.100   0.006 184.062   0.001   1.680 143.471

                     1                      2                      3
                     A                      A                      A
 Frequencies --    27.9066                40.2304                71.8794
 Red. masses --     2.8327                 3.0666                 5.6704
 Frc consts  --     0.0013                 0.0029                 0.0173
 IR Inten    --     2.1316                 4.0184                12.1190

                     4                      5                      6
                     A                      A                      A
 Frequencies --    96.2269               103.7675               142.3123
 Red. masses --     6.0751                 4.2050                 3.5015
 Frc consts  --     0.0331                 0.0267                 0.0418
 IR Inten    --    17.9461                21.7270                 6.3217

                     7                      8                      9
                     A                      A                      A
 Frequencies --   194.2647               200.3370               235.8127
 Red. masses --     3.8509                 2.0920                 1.4978
 Frc consts  --     0.0856                 0.0495                 0.0491
 IR Inten    --    36.0353                 0.8621                 0.6462

                    10                     11                     12
                     A                      A                      A
 Frequencies --   238.0795               272.8147               297.6503
 Red. masses --     1.2174                 1.8452                 1.6392
 Frc consts  --     0.0407                 0.0809                 0.0856
 IR Inten    --     4.7902                 0.5305                 0.5552

                    13                     14                     15
                     A                      A                      A
 Frequencies --   323.7963               326.0170               389.9150
 Red. masses --     1.3825                 1.5039                 1.9794
 Frc consts  --     0.0854                 0.0942                 0.1773
 IR Inten    --     0.4601                 0.0343                 0.1277

                    16                     17                     18
                     A                      A                      A
 Frequencies --   417.8402               448.5559               461.2313
 Red. masses --     2.5284                 2.6828                 2.7000
 Frc consts  --     0.2601                 0.3180                 0.3384
 IR Inten    --     3.3399                 0.2347                 3.7916

                    19                     20                     21
                     A                      A                      A
 Frequencies --   495.8690               569.6792               613.5973
 Red. masses --     3.1859                 3.5866                 4.1584
 Frc consts  --     0.4616                 0.6858                 0.9224
 IR Inten    --     0.2465                39.4885                14.6484

                    22                     23                     24
                     A                      A                      A
 Frequencies --   653.7291               686.6570               697.8915
 Red. masses --     3.1619                 3.0065                 1.2970
 Frc consts  --     0.7961                 0.8352                 0.3722
 IR Inten    --    87.1391                 0.4719                17.7580

                    25                     26                     27
                     A                      A                      A
 Frequencies --   755.8670               807.3545               891.5009
 Red. masses --     1.0998                 1.2939                 2.5893
 Frc consts  --     0.3702                 0.4969                 1.2125
 IR Inten    --    11.4841                 0.0597                 0.9495

                    28                     29                     30
                     A                      A                      A
 Frequencies --   894.2351               959.3846               960.9335
 Red. masses --     2.6031                 1.2049                 1.1928
 Frc consts  --     1.2264                 0.6534                 0.6490
 IR Inten    --     0.4214                 2.8374                 4.6091

                    31                     32                     33
                     A                      A                      A
 Frequencies --   975.0751               975.8780              1016.6535
 Red. masses --     1.4437                 1.4366                 3.3732
 Frc consts  --     0.8087                 0.8061                 2.0542
 IR Inten    --     0.0418                 0.0027                 9.1903

                    34                     35                     36
                     A                      A                      A
 Frequencies --  1023.2281              1119.9082              1132.2375
 Red. masses --     3.5262                 1.5914                 1.3550
 Frc consts  --     2.1752                 1.1759                 1.0235
 IR Inten    --     2.2277                41.4469                11.3840

                    37                     38                     39
                     A                      A                      A
 Frequencies --  1140.4793              1157.0502              1162.6360
 Red. masses --     1.7094                 1.8528                 1.9798
 Frc consts  --     1.3100                 1.4614                 1.5768
 IR Inten    --    10.4333                 1.6484                 4.2020

                    40                     41                     42
                     A                      A                      A
 Frequencies --  1184.1887              1205.6481              1215.6124
 Red. masses --     1.8704                 1.8168                 1.9737
 Frc consts  --     1.5453                 1.5560                 1.7184
 IR Inten    --    37.9087                 5.7078               114.1909

                    43                     44                     45
                     A                      A                      A
 Frequencies --  1298.6434              1319.2456              1360.5506
 Red. masses --     1.3057                 5.6260                 1.9501
 Frc consts  --     1.2974                 5.7690                 2.1269
 IR Inten    --    33.6381                 9.4462                47.1895

                    46                     47                     48
                     A                      A                      A
 Frequencies --  1364.6746              1368.4782              1383.4118
 Red. masses --     1.3855                 1.6044                 1.3804
 Frc consts  --     1.5203                 1.7702                 1.5565
 IR Inten    --    34.0598                 8.7051                19.3039

                    49                     50                     51
                     A                      A                      A
 Frequencies --  1407.5849              1432.1499              1436.6600
 Red. masses --     1.6982                 1.3334                 1.3343
 Frc consts  --     1.9824                 1.6113                 1.6226
 IR Inten    --     4.5150                 7.4727                 2.1844

                    52                     53                     54
                     A                      A                      A
 Frequencies --  1447.3865              1454.4886              1455.1673
 Red. masses --     2.8201                 1.2315                 1.2837
 Frc consts  --     3.4808                 1.5350                 1.6016
 IR Inten    --    75.6567                20.6765                18.2147

                    55                     56                     57
                     A                      A                      A
 Frequencies --  1512.6497              1514.0343              1528.7776
 Red. masses --     1.0516                 1.0607                 1.0513
 Frc consts  --     1.4177                 1.4326                 1.4476
 IR Inten    --     1.2013                 0.4329                 0.3335

                    58                     59                     60
                     A                      A                      A
 Frequencies --  1529.0666              1530.8379              1531.4394
 Red. masses --     1.0498                 1.0493                 1.0534
 Frc consts  --     1.4462                 1.4489                 1.4556
 IR Inten    --     3.7107                 3.7493                 6.5272

                    61                     62                     63
                     A                      A                      A
 Frequencies --  1557.1163              1559.8828              1587.4285
 Red. masses --     1.1302                 1.0473                 2.7316
 Frc consts  --     1.6145                 1.5014                 4.0556
 IR Inten    --     0.0112                13.9207                69.0440

                    64                     65                     66
                     A                      A                      A
 Frequencies --  1624.7984              3048.3349              3048.8371
 Red. masses --     4.8421                 1.0395                 1.0395
 Frc consts  --     7.5315                 5.6913                 5.6930
 IR Inten    --    12.0800                 5.4681                34.8307

                    67                     68                     69
                     A                      A                      A
 Frequencies --  3060.1055              3060.2590              3076.2720
 Red. masses --     1.0385                 1.0386                 1.0818
 Frc consts  --     5.7296                 5.7307                 6.0318
 IR Inten    --    14.1078                22.7481                 0.0736

                    70                     71                     72
                     A                      A                      A
 Frequencies --  3076.6504              3125.2220              3125.3429
 Red. masses --     1.0819                 1.1001                 1.1001
 Frc consts  --     6.0341                 6.3304                 6.3311
 IR Inten    --     2.0138                12.3884                 3.2544

                    73                     74                     75
                     A                      A                      A
 Frequencies --  3129.1664              3129.3465              3137.7302
 Red. masses --     1.1023                 1.1023                 1.1014
 Frc consts  --     6.3593                 6.3602                 6.3887
 IR Inten    --     0.0838                53.0798                36.5030

                    76                     77                     78
                     A                      A                      A
 Frequencies --  3137.8558              3144.4553              3144.8129
 Red. masses --     1.1013                 1.1044                 1.1042
 Frc consts  --     6.3890                 6.4335                 6.4343
 IR Inten    --    18.4620                 5.2286                 1.0069

                    79                     80                     81
                     A                      A                      A
 Frequencies --  3316.6728              3335.4710              3412.7908
 Red. masses --     1.0904                 1.1073                 1.0988
 Frc consts  --     7.0674                 7.2580                 7.5405
 IR Inten    --     2.8703                 0.0345                 7.7996

 - Thermochemistry -
 -------------------
 Temperature   298.150 Kelvin.  Pressure   1.00000 Atm.
 Atom     1 has atomic number  6 and mass  12.00000

 Molecular mass:   188.10803 amu.
 Principal axes and moments of inertia in atomic units:
                           1         2         3
     Eigenvalues --  1675.512533265.752114107.04703
           X            1.00000  -0.00002   0.00001
           Y            0.00002   0.99793   0.06432
           Z           -0.00001  -0.06432   0.99793
 This molecule is an asymmetric top.
 Rotational symmetry number  1.
 Warning -- assumption of classical behavior for rotation
           may cause significant error
 Rotational temperatures (Kelvin)      0.05169     0.02652     0.02109
 Rotational constants (GHZ):           1.07713     0.55263     0.43943
 Zero-point vibrational energy     671689.6 (Joules/Mol)
                                  160.53766 (Kcal/Mol)
 Warning -- explicit consideration of  21 degrees of freedom as
           vibrations may cause significant error
 Vibrational temperatures:     40.15    57.88   103.42   138.45   149.30
          (Kelvin)            204.76   279.50   288.24   339.28   342.54
                              392.52   428.25   465.87   469.07   561.00
                              601.18   645.37   663.61   713.44   819.64
                              882.83   940.57   987.94  1004.11  1087.52
                             1161.60  1282.67  1286.60  1380.34  1382.57
                             1402.91  1404.07  1462.74  1472.20  1611.30
                             1629.04  1640.89  1664.74  1672.77  1703.78
                             1734.66  1748.99  1868.46  1898.10  1957.53
                             1963.46  1968.93  1990.42  2025.20  2060.54
                             2067.03  2082.46  2092.68  2093.66  2176.36
                             2178.36  2199.57  2199.98  2202.53  2203.40
                             2240.34  2244.32  2283.95  2337.72  4385.87
                             4386.59  4402.80  4403.02  4426.06  4426.61
                             4496.49  4496.67  4502.17  4502.43  4514.49
                             4514.67  4524.16  4524.68  4771.95  4798.99
                             4910.24

 Zero-point correction=                           0.255833 (Hartree/Particle)
 Thermal correction to Energy=                    0.269974
 Thermal correction to Enthalpy=                  0.270919
 Thermal correction to Gibbs Free Energy=         0.214025
 Sum of electronic and zero-point Energies=           -922.645609
 Sum of electronic and thermal Energies=              -922.631468
 Sum of electronic and thermal Enthalpies=            -922.630524
 Sum of electronic and thermal Free Energies=         -922.687418

                     E (Thermal)             CV                S
                      KCal/Mol        Cal/Mol-Kelvin    Cal/Mol-Kelvin
 Total                  169.412             51.749            119.743
 Electronic               0.000              0.000              0.000
 Translational            0.889              2.981             41.601
 Rotational               0.889              2.981             31.486
 Vibrational            167.634             45.788             46.656
 Vibration     1          0.593              1.984              5.973
 Vibration     2          0.594              1.981              5.248
 Vibration     3          0.598              1.967              4.101
 Vibration     4          0.603              1.952              3.529
 Vibration     5          0.605              1.946              3.382
 Vibration     6          0.616              1.911              2.773
 Vibration     7          0.635              1.848              2.187
 Vibration     8          0.638              1.839              2.130
 Vibration     9          0.655              1.786              1.834
 Vibration    10          0.656              1.782              1.817
 Vibration    11          0.676              1.723              1.578
 Vibration    12          0.691              1.678              1.430
 Vibration    13          0.708              1.628              1.291
 Vibration    14          0.710              1.623              1.280
 Vibration    15          0.758              1.492              1.000
 Vibration    16          0.781              1.431              0.899
 Vibration    17          0.808              1.364              0.800
 Vibration    18          0.819              1.336              0.763
 Vibration    19          0.851              1.259              0.669
 Vibration    20          0.926              1.097              0.505
 Vibration    21          0.973              1.003              0.427

 Normal termination of Gaussian 09 at Sat Oct  2 18:37:43 2021.
 Gaussian 09:  AM64L-G09RevA.02 11-Jun-2009

 ----------------------------------------------------------------------
 #p TD(NStates=10, Root=1) b3lyp/6-31G* volume pop=NPA density=current
 Geom=AllCheck Guess=Read
 ----------------------------------------------------------------------

 CC(n1cc[n+](c1)C(C)C)C.[Cl-]_conf_0
 -----------------------------------
 Redundant internal coordinates taken from checkpoint file:
 C9H17ClN2_6d1c_conf_0.chk
 Charge =  0 Multiplicity = 1

                         Standard orientation:
 ---------------------------------------------------------------------
 Center     Atomic      Atomic             Coordinates (Angstroms)
 Number     Number       Type             X           Y           Z
 ---------------------------------------------------------------------
      1          6           0        3.489194   -1.236127    0.216284
      2          6           0        2.478934   -0.094814    0.077423
      3          7           0        1.096401   -0.636516    0.005006
      4          6           0        0.677218   -1.661380   -0.837424
      5          6           0       -0.677799   -1.661219   -0.837399
      6          7           0       -1.096700   -0.636254    0.005061
      7          6           0       -0.000050    0.019638    0.426046
      8          6           0       -2.479047   -0.094113    0.077511
      9          6           0       -3.489800   -1.235115    0.215235
     10          6           0       -2.603867    0.926069    1.208868
     11          6           0        2.603925    0.926264    1.207948
     12         17           0        0.000708    2.264152   -1.041433
     13          1           0        3.450531   -1.940080   -0.621297
     14          1           0        3.328701   -1.793883    1.145829
     15          1           0        4.499846   -0.817054    0.238765
     16          1           0        2.624832    0.435868   -0.870892
     17          1           0        1.371160   -2.303781   -1.352793
     18          1           0       -1.371909   -2.303513   -1.352667
     19          1           0        0.000046    0.812390    1.144753
     20          1           0       -2.624526    0.437388   -0.870414
     21          1           0       -3.329703   -1.793750    1.144322
     22          1           0       -3.451343   -1.938348   -0.622957
     23          1           0       -4.500273   -0.815619    0.237926
     24          1           0       -2.364013    0.480692    2.182435
     25          1           0       -3.638628    1.280001    1.247195
     26          1           0       -1.962355    1.790663    1.015312
     27          1           0        2.364560    0.481598    2.181964
     28          1           0        1.962243    1.790627    1.013885
     29          1           0        3.638647    1.280396    1.245567
 ---------------------------------------------------------------------

 SCF Done:  E(RB3LYP) =  -922.901442483     A.U. after    1 cycles

 Excitation energies and oscillator strengths:

 Excited State   1:      Singlet-A      3.8780 eV  319.71 nm  f=0.0001  <S**2>=0.000
      50 -> 52         0.70631
 This state for optimization and/or second-order correction.
 Total Energy, E(TD-HF/TD-KS) =  -922.758928297
 Copying the excited state density for this state as the 1-particle RhoCI density.

 Excited State   2:      Singlet-A      3.9076 eV  317.29 nm  f=0.0005  <S**2>=0.000
      49 -> 52         0.70685

 Excited State   3:      Singlet-A      4.4069 eV  281.34 nm  f=0.1915  <S**2>=0.000
      51 -> 52         0.69370

 Excited State   4:      Singlet-A      4.4667 eV  277.57 nm  f=0.0137  <S**2>=0.000
      50 -> 53         0.18030
      51 -> 53         0.68035

 Excited State   5:      Singlet-A      4.5265 eV  273.91 nm  f=0.0005  <S**2>=0.000
      50 -> 53         0.68366
      51 -> 53        -0.17964

 Excited State   6:      Singlet-A      4.5659 eV  271.54 nm  f=0.0066  <S**2>=0.000
      49 -> 53         0.70132

 Excited State   7:      Singlet-A      6.0534 eV  204.82 nm  f=0.0018  <S**2>=0.000
      51 -> 54         0.70113

 Excited State   8:      Singlet-A      6.1921 eV  200.23 nm  f=0.0053  <S**2>=0.000
      50 -> 54         0.69994

 Excited State   9:      Singlet-A      6.2171 eV  199.42 nm  f=0.0128  <S**2>=0.000
      49 -> 54         0.70262

 Excited State  10:      Singlet-A      6.4420 eV  192.46 nm  f=0.0053  <S**2>=0.000
      51 -> 55         0.70516

 The electronic state is 1-A.
 Alpha  occ. eigenvalues -- -101.38596 -14.41820 -14.41819 -10.29087 -10.25248
 Alpha  occ. eigenvalues --  -10.25246 -10.24714 -10.24639 -10.20250 -10.20249
 Alpha  occ. eigenvalues --  -10.18818 -10.18814  -9.29961  -7.05829  -7.05699
 Alpha  occ. eigenvalues --   -7.05683  -1.06604  -0.95470  -0.83351  -0.79024
 Alpha  occ. eigenvalues --   -0.78826  -0.71350  -0.70596  -0.67917  -0.64412
 Alpha  occ. eigenvalues --   -0.64303  -0.60687  -0.60346  -0.55292  -0.50302
 Alpha  occ. eigenvalues --   -0.49981  -0.48275  -0.47421  -0.46775  -0.46634
 Alpha  occ. eigenvalues --   -0.43882  -0.42009  -0.41992  -0.40921  -0.40414
 Alpha  occ. eigenvalues --   -0.39449  -0.39329  -0.38027  -0.36246  -0.36236
 Alpha  occ. eigenvalues --   -0.35953  -0.30274  -0.27497  -0.18454  -0.18328
 Alpha  occ. eigenvalues --   -0.18038
 Alpha virt. eigenvalues --   -0.00428   0.01000   0.06739   0.07915   0.09893
 Alpha virt. eigenvalues --    0.09946   0.10754   0.11862   0.12340   0.13499
 Alpha virt. eigenvalues --    0.14437   0.14594   0.15795   0.16554   0.17266

 Mulliken atomic charges:
              1
     1  C   -0.454074
     2  C    0.068026
     3  N   -0.437695
     4  C   -0.004365
     5  C   -0.004353
     6  N   -0.437720
     7  C    0.198836
     8  C    0.068043
     9  C   -0.454116
    10  C   -0.471421
    11  C   -0.471414
    12  Cl  -0.206630
    13  H    0.148776
    14  H    0.156141
    15  H    0.147542
    16  H    0.150578
    17  H    0.148481
    18  H    0.148479
    19  H    0.142016
    20  H    0.150587
    21  H    0.156144
    22  H    0.148782
    23  H    0.147556
    24  H    0.155526
    25  H    0.149936
    26  H    0.175432
    27  H    0.155505
    28  H    0.175458
    29  H    0.149944
 Sum of Mulliken atomic charges =  -0.00000

 Dipole moment (field-independent basis, Debye):
    X=             -0.0006    Y=             -1.9014    Z=              0.8983  Tot=              2.1030
 Quadrupole moment (field-independent basis, Debye-Ang):
   XX=            -71.3214   YY=            -85.8200   ZZ=            -81.6632
   XY=             -0.0020   XZ=              0.0015   YZ=              7.5363

 Summary of Natural Population Analysis:

                                       Natural Population
                Natural  -----------------------------------------------
    Atom  No    Charge         Core      Valence    Rydberg      Total
 -----------------------------------------------------------------------
      C    1   -0.68436      1.99942     4.67629    0.00866     6.68436
      C    2   -0.04240      1.99924     4.02868    0.01448     6.04240
      N    3   -0.42212      1.99929     5.40709    0.01574     7.42212
      C    4   -0.08792      1.99912     4.07191    0.01689     6.08792
      C    5   -0.08792      1.99912     4.07191    0.01689     6.08792
      N    6   -0.42212      1.99929     5.40709    0.01574     7.42212
      C    7    0.05585      1.99934     3.92291    0.02191     5.94415
      C    8   -0.04240      1.99924     4.02867    0.01448     6.04240
      C    9   -0.68438      1.99942     4.67630    0.00866     6.68438
      C   10   -0.68959      1.99941     4.68159    0.00858     6.68959
      C   11   -0.68959      1.99941     4.68159    0.00858     6.68959
     Cl   12   -0.20704     10.00307     7.20328    0.00070    17.20704
      H   13    0.23047      0.00000     0.76888    0.00065     0.76953
      H   14    0.23494      0.00000     0.76326    0.00180     0.76506
      H   15    0.23660      0.00000     0.76226    0.00114     0.76340
      H   16    0.23768      0.00000     0.75926    0.00306     0.76232
      H   17    0.23251      0.00000     0.76712    0.00037     0.76749
      H   18    0.23251      0.00000     0.76712    0.00037     0.76749
      H   19    0.21404      0.00000     0.78548    0.00048     0.78596
      H   20    0.23768      0.00000     0.75926    0.00306     0.76232
      H   21    0.23494      0.00000     0.76325    0.00180     0.76506
      H   22    0.23047      0.00000     0.76888    0.00065     0.76953
      H   23    0.23661      0.00000     0.76225    0.00114     0.76339
      H   24    0.23411      0.00000     0.76460    0.00129     0.76589
      H   25    0.24068      0.00000     0.75863    0.00069     0.75932
      H   26    0.24465      0.00000     0.75535    0.00000     0.75535
      H   27    0.23409      0.00000     0.76462    0.00129     0.76591
      H   28    0.24467      0.00000     0.75533    0.00000     0.75533
      H   29    0.24070      0.00000     0.75862    0.00069     0.75930
 =======================================================================
   * Total *   -0.00666     31.99538    69.84148    0.16980   102.00666

 Normal termination of Gaussian 09 at Sat Oct  2 23:32:04 2021.
