 Gaussian 09, Revision A.02,

 -----------------------------------
 #p opt b3lyp/6-31G* scf=(xqc,tight)
 -----------------------------------

 ---------------------
 CCc1ccc(cc1)OC_conf_0
 ---------------------
 Symbolic Z-matrix:
 Charge =  0 Multiplicity = 1

 SCF Done:  E(RB3LYP) =  -425.400843699     A.U. after   14 cycles
 SCF Done:  E(RB3LYP) =  -425.402267256     A.U. after   12 cycles
 SCF Done:  E(RB3LYP) =  -425.402361800     A.U. after   11 cycles
 SCF Done:  E(RB3LYP) =  -425.402379705     A.U. after   10 cycles
 SCF Done:  E(RB3LYP) =  -425.402391657     A.U. after   10 cycles
 SCF Done:  E(RB3LYP) =  -425.402397305     A.U. after   10 cycles
 SCF Done:  E(RB3LYP) =  -425.402398600     A.U. after    8 cycles
 SCF Done:  E(RB3LYP) =  -425.402398934     A.U. after    8 cycles
 SCF Done:  E(RB3LYP) =  -425.402399210     A.U. after    8 cycles
 SCF Done:  E(RB3LYP) =  -425.402399289     A.U. after    8 cycles
 Optimization completed.
    -- Stationary point found.
 Normal termination of Gaussian 09 at Tue Sep 28 17:15:15 2021.

 ----------------------------------------------------------------------
 #p freq b3lyp/6-31G* volume NMR pop=NPA density=current Geom=AllCheck
 Guess=Read
 ----------------------------------------------------------------------

 CCc1ccc(cc1)OC_conf_0
 ---------------------
 Redundant internal coordinates taken from checkpoint file:
 C9H12O_c006_conf_0.chk
 Charge =  0 Multiplicity = 1

 SCF Done:  E(RB3LYP) =  -425.402399289     A.U. after    1 cycles

  1  C    Isotropic =   169.3348   Anisotropy =    28.5794

  2  C    Isotropic =   157.9183   Anisotropy =    26.4369

  3  C    Isotropic =    61.1980   Anisotropy =   174.5004

  4  C    Isotropic =    67.0570   Anisotropy =   147.0231

  5  C    Isotropic =    86.6855   Anisotropy =   141.9585

  6  C    Isotropic =    40.5873   Anisotropy =   126.1624

  7  C    Isotropic =    78.2948   Anisotropy =   134.5037

  8  C    Isotropic =    66.8379   Anisotropy =   150.4058

  9  O    Isotropic =   240.2748   Anisotropy =    75.3814

 10  C    Isotropic =   137.5917   Anisotropy =    64.7818

 11  H    Isotropic =    30.9179   Anisotropy =    10.2209

 12  H    Isotropic =    31.0661   Anisotropy =     6.9920

 13  H    Isotropic =    31.1161   Anisotropy =     6.8760

 14  H    Isotropic =    29.6386   Anisotropy =     6.5264

 15  H    Isotropic =    29.7435   Anisotropy =     6.3814

 16  H    Isotropic =    25.2357   Anisotropy =     6.9974

 17  H    Isotropic =    25.8894   Anisotropy =     7.2032

 18  H    Isotropic =    25.5502   Anisotropy =     5.7495

 19  H    Isotropic =    25.1778   Anisotropy =     6.7914

 20  H    Isotropic =    28.3415   Anisotropy =     8.0263

 21  H    Isotropic =    28.6745   Anisotropy =     8.0244

 22  H    Isotropic =    28.6800   Anisotropy =     7.9563

  Exact polarizability: 138.702  -1.863  95.864   5.099   1.628  54.273
 Approx polarizability: 188.117   0.423 163.117  11.790   4.207  77.594

                     1                      2                      3
                     A                      A                      A
 Frequencies --    42.0499                73.2971               119.0435
 Red. masses --     2.4761                 3.0990                 3.8244
 Frc consts  --     0.0026                 0.0098                 0.0319
 IR Inten    --     0.3805                 2.1011                 1.7135

                     4                      5                      6
                     A                      A                      A
 Frequencies --   203.8243               217.6580               251.5747
 Red. masses --     1.5104                 2.0642                 1.6833
 Frc consts  --     0.0370                 0.0576                 0.0628
 IR Inten    --     0.6787                 0.5361                 1.2281

                     7                      8                      9
                     A                      A                      A
 Frequencies --   270.9801               353.7969               393.4159
 Red. masses --     1.4306                 2.2877                 4.3889
 Frc consts  --     0.0619                 0.1687                 0.4002
 IR Inten    --     0.4804                 0.7629                 1.9291

                    10                     11                     12
                     A                      A                      A
 Frequencies --   426.7501               447.1702               524.7963
 Red. masses --     3.1730                 4.0591                 3.5068
 Frc consts  --     0.3405                 0.4782                 0.5690
 IR Inten    --     0.0552                 0.4382                 6.0620

                    13                     14                     15
                     A                      A                      A
 Frequencies --   562.7893               654.4162               712.9288
 Red. masses --     2.4747                 6.6448                 3.9217
 Frc consts  --     0.4618                 1.6766                 1.1744
 IR Inten    --     9.2520                 0.2652                 9.2600

                    16                     17                     18
                     A                      A                      A
 Frequencies --   739.9632               797.6449               825.6988
 Red. masses --     3.7442                 1.1678                 1.3136
 Frc consts  --     1.2079                 0.4378                 0.5277
 IR Inten    --     3.2636                 0.9528                10.0923

                    19                     20                     21
                     A                      A                      A
 Frequencies --   834.3022               846.8976               940.5200
 Red. masses --     4.6153                 1.5961                 1.3087
 Frc consts  --     1.8928                 0.6745                 0.6821
 IR Inten    --     4.6519                34.8845                 0.0219

                    22                     23                     24
                     A                      A                      A
 Frequencies --   959.1172               978.3190              1032.9104
 Red. masses --     1.2991                 2.4023                 2.7391
 Frc consts  --     0.7041                 1.3547                 1.7218
 IR Inten    --     0.0865                 1.8674                 0.1648

                    25                     26                     27
                     A                      A                      A
 Frequencies --  1075.5765              1083.3412              1093.3998
 Red. masses --     1.9813                 2.8355                 1.9035
 Frc consts  --     1.3505                 1.9607                 1.3408
 IR Inten    --    18.1728                39.9436                 4.9392

                    28                     29                     30
                     A                      A                      A
 Frequencies --  1150.4410              1185.4723              1210.4321
 Red. masses --     1.2689                 1.2711                 1.1597
 Frc consts  --     0.9895                 1.0525                 1.0011
 IR Inten    --     7.6375                 0.7502                17.4435

                    31                     32                     33
                     A                      A                      A
 Frequencies --  1219.0087              1235.8917              1285.3595
 Red. masses --     1.3970                 2.5720                 1.6805
 Frc consts  --     1.2231                 2.3147                 1.6359
 IR Inten    --     9.6140                 0.3720                47.4521

                    34                     35                     36
                     A                      A                      A
 Frequencies --  1298.8951              1347.7819              1370.1043
 Red. masses --     2.7262                 1.5907                 2.0578
 Frc consts  --     2.7100                 1.7025                 2.2759
 IR Inten    --   218.3538                16.9716                 7.6513

                    37                     38                     39
                     A                      A                      A
 Frequencies --  1377.1963              1436.6212              1468.9830
 Red. masses --     1.8547                 1.2209                 2.8539
 Frc consts  --     2.0726                 1.4847                 3.6285
 IR Inten    --    23.7239                 1.1732                 0.7478

                    40                     41                     42
                     A                      A                      A
 Frequencies --  1500.2577              1517.1016              1520.9276
 Red. masses --     1.1945                 1.0646                 1.0482
 Frc consts  --     1.5840                 1.4437                 1.4287
 IR Inten    --    16.3628                 0.6535                 5.0714

                    43                     44                     45
                     A                      A                      A
 Frequencies --  1526.4215              1535.8203              1537.9429
 Red. masses --     1.0414                 1.0673                 1.0746
 Frc consts  --     1.4296                 1.4833                 1.4976
 IR Inten    --     6.9613                37.2152                 5.3847

                    46                     47                     48
                     A                      A                      A
 Frequencies --  1567.4987              1634.6822              1676.0796
 Red. masses --     2.4199                 6.4234                 5.8043
 Frc consts  --     3.5032                10.1131                 9.6071
 IR Inten    --   101.2325                10.9027                48.2848

                    49                     50                     51
                     A                      A                      A
 Frequencies --  3022.1406              3039.4140              3045.6970
 Red. masses --     1.0349                 1.0603                 1.0347
 Frc consts  --     5.5691                 5.7713                 5.6553
 IR Inten    --    58.8696                34.9907                36.8151

                    52                     53                     54
                     A                      A                      A
 Frequencies --  3073.0099              3079.4493              3113.9695
 Red. masses --     1.1034                 1.1065                 1.1025
 Frc consts  --     6.1390                 6.1824                 6.2987
 IR Inten    --    11.4035                46.9055                51.9620

                    55                     56                     57
                     A                      A                      A
 Frequencies --  3119.7020              3154.2925              3173.5897
 Red. masses --     1.1034                 1.0994                 1.0891
 Frc consts  --     6.3271                 6.4450                 6.4627
 IR Inten    --    35.1401                29.3700                19.2165

                    58                     59                     60
                     A                      A                      A
 Frequencies --  3174.9643              3211.8416              3223.8167
 Red. masses --     1.0886                 1.0929                 1.0908
 Frc consts  --     6.4651                 6.6423                 6.6796
 IR Inten    --    17.4936                 9.1186                12.9869

 - Thermochemistry -
 -------------------
 Temperature   298.150 Kelvin.  Pressure   1.00000 Atm.
 Atom     1 has atomic number  6 and mass  12.00000

 Molecular mass:   136.08882 amu.
 Principal axes and moments of inertia in atomic units:
                           1         2         3
     Eigenvalues --   463.578312672.650092955.61130
           X            0.99994  -0.01049  -0.00392
           Y            0.01048   0.99994  -0.00307
           Z            0.00395   0.00303   0.99999
 This molecule is an asymmetric top.
 Rotational symmetry number  1.
 Warning -- assumption of classical behavior for rotation
           may cause significant error
 Rotational temperatures (Kelvin)      0.18684     0.03241     0.02930
 Rotational constants (GHZ):           3.89307     0.67526     0.61062
 Zero-point vibrational energy     499422.9 (Joules/Mol)
                                  119.36494 (Kcal/Mol)
 Warning -- explicit consideration of  13 degrees of freedom as
           vibrations may cause significant error
 Vibrational temperatures:     60.50   105.46   171.28   293.26   313.16
          (Kelvin)            361.96   389.88   509.03   566.04   614.00
                              643.38   755.06   809.73   941.56  1025.74
                             1064.64  1147.63  1187.99  1200.37  1218.50
                             1353.20  1379.95  1407.58  1486.13  1547.51
                             1558.68  1573.16  1655.23  1705.63  1741.54
                             1753.88  1778.17  1849.34  1868.82  1939.16
                             1971.27  1981.48  2066.97  2113.54  2158.53
                             2182.77  2188.27  2196.18  2209.70  2212.75
                             2255.28  2351.94  2411.50  4348.18  4373.03
                             4382.07  4421.37  4430.64  4480.30  4488.55
                             4538.32  4566.08  4568.06  4621.12  4638.35

 Zero-point correction=                           0.190220 (Hartree/Particle)
 Thermal correction to Energy=                    0.200077
 Thermal correction to Enthalpy=                  0.201021
 Thermal correction to Gibbs Free Energy=         0.154604
 Sum of electronic and zero-point Energies=           -425.212179
 Sum of electronic and thermal Energies=              -425.202322
 Sum of electronic and thermal Enthalpies=            -425.201378
 Sum of electronic and thermal Free Energies=         -425.247796

                     E (Thermal)             CV                S
                      KCal/Mol        Cal/Mol-Kelvin    Cal/Mol-Kelvin
 Total                  125.550             36.955             97.694
 Electronic               0.000              0.000              0.000
 Translational            0.889              2.981             40.637
 Rotational               0.889              2.981             29.683
 Vibrational            123.773             30.993             27.374
 Vibration     1          0.595              1.980              5.160
 Vibration     2          0.599              1.967              4.063
 Vibration     3          0.609              1.933              3.116
 Vibration     4          0.639              1.834              2.098
 Vibration     5          0.646              1.814              1.978
 Vibration     6          0.664              1.760              1.720
 Vibration     7          0.675              1.727              1.590
 Vibration     8          0.730              1.567              1.149
 Vibration     9          0.761              1.484              0.987
 Vibration    10          0.788              1.412              0.869
 Vibration    11          0.806              1.367              0.804
 Vibration    12          0.880              1.195              0.599
 Vibration    13          0.919              1.112              0.518

 Optimization completed.
    -- Stationary point found.
 Normal termination of Gaussian 09 at Tue Sep 28 17:40:51 2021.
 Gaussian 09:  AM64L-G09RevA.02 11-Jun-2009

 ----------------------------------------------------------------------
 #p TD(NStates=10, Root=1) b3lyp/6-31G* volume pop=NPA density=current
 Geom=AllCheck Guess=Read
 ----------------------------------------------------------------------

 CCc1ccc(cc1)OC_conf_0
 ---------------------
 Redundant internal coordinates taken from checkpoint file:
 C9H12O_c006_conf_0.chk
 Charge =  0 Multiplicity = 1

                         Standard orientation:
 ---------------------------------------------------------------------
 Center     Atomic      Atomic             Coordinates (Angstroms)
 Number     Number       Type             X           Y           Z
 ---------------------------------------------------------------------
      1          6           0       -3.609579   -0.211309    0.855486
      2          6           0       -2.872620   -0.176827   -0.495413
      3          6           0       -1.373371   -0.019216   -0.350523
      4          6           0       -0.525879   -1.128749   -0.305936
      5          6           0        0.855868   -0.998434   -0.133261
      6          6           0        1.416558    0.276008   -0.001447
      7          6           0        0.583343    1.403007   -0.046976
      8          6           0       -0.786500    1.250054   -0.219016
      9          8           0        2.750033    0.529132    0.168345
     10          6           0        3.636830   -0.574657    0.228039
     11          1           0       -4.690834   -0.323187    0.711849
     12          1           0       -3.435811    0.711119    1.421311
     13          1           0       -3.259203   -1.047487    1.471259
     14          1           0       -3.272275    0.647714   -1.100276
     15          1           0       -3.092361   -1.099167   -1.048213
     16          1           0       -0.947149   -2.126649   -0.411499
     17          1           0        1.475224   -1.888034   -0.109395
     18          1           0        1.034536    2.385865    0.049657
     19          1           0       -1.416702    2.136467   -0.256320
     20          1           0        4.633145   -0.152203    0.372471
     21          1           0        3.622970   -1.157255   -0.703153
     22          1           0        3.400290   -1.239507    1.069827
 ---------------------------------------------------------------------

 SCF Done:  E(RB3LYP) =  -425.402399289     A.U. after    1 cycles

 Excitation energies and oscillator strengths:

 Excited State   1:      Singlet-A      5.0769 eV  244.21 nm  f=0.0287  <S**2>=0.000
      36 -> 39        -0.30022
      37 -> 38         0.63475
 This state for optimization and/or second-order correction.
 Total Energy, E(TD-HF/TD-KS) =  -425.215826168
 Copying the excited state density for this state as the 1-particle RhoCI density.

 Excited State   2:      Singlet-A      5.8345 eV  212.50 nm  f=0.1950  <S**2>=0.000
      36 -> 38         0.29679
      37 -> 39         0.63251

 Excited State   3:      Singlet-A      6.9065 eV  179.52 nm  f=0.3869  <S**2>=0.000
      35 -> 38         0.19653
      36 -> 38        -0.34994
      36 -> 39         0.47950
      37 -> 38         0.23658
      37 -> 39         0.19140

 Excited State   4:      Singlet-A      6.9449 eV  178.52 nm  f=0.5595  <S**2>=0.000
      35 -> 38         0.15173
      36 -> 38         0.51573
      36 -> 39         0.35022
      37 -> 38         0.14056
      37 -> 39        -0.21564

 Excited State   5:      Singlet-A      7.2269 eV  171.56 nm  f=0.0242  <S**2>=0.000
      37 -> 40         0.68533
      37 -> 42        -0.12372

 Excited State   6:      Singlet-A      7.5989 eV  163.16 nm  f=0.0017  <S**2>=0.000
      31 -> 38        -0.11610
      34 -> 38         0.69166

 Excited State   7:      Singlet-A      7.6870 eV  161.29 nm  f=0.0108  <S**2>=0.000
      37 -> 41         0.69026
      37 -> 42         0.11514

 Excited State   8:      Singlet-A      7.8050 eV  158.85 nm  f=0.1051  <S**2>=0.000
      35 -> 38         0.65102
      36 -> 39        -0.21716
      37 -> 38        -0.10638

 Excited State   9:      Singlet-A      7.8883 eV  157.18 nm  f=0.0018  <S**2>=0.000
      33 -> 38         0.28365
      34 -> 39         0.62832

 Excited State  10:      Singlet-A      7.9754 eV  155.46 nm  f=0.0001  <S**2>=0.000
      33 -> 38         0.61983
      34 -> 39        -0.29294

 The electronic state is 1-A.
 Alpha  occ. eigenvalues --  -19.17260 -10.23997 -10.23806 -10.18335 -10.18304
 Alpha  occ. eigenvalues --  -10.18244 -10.18217 -10.18188 -10.17833 -10.17286
 Alpha  occ. eigenvalues --   -1.05811  -0.84658  -0.77865  -0.74219  -0.72738
 Alpha  occ. eigenvalues --   -0.68585  -0.61864  -0.60410  -0.56697  -0.52688
 Alpha  occ. eigenvalues --   -0.48127  -0.46437  -0.46359  -0.43978  -0.43258
 Alpha  occ. eigenvalues --   -0.41568  -0.40663  -0.39945  -0.37627  -0.36084
 Alpha  occ. eigenvalues --   -0.35671  -0.33543  -0.33091  -0.31862  -0.30533
 Alpha  occ. eigenvalues --   -0.24398  -0.20833
 Alpha virt. eigenvalues --    0.00495   0.01883   0.09308   0.10507   0.12082
 Alpha virt. eigenvalues --    0.13551   0.14185   0.15233   0.15732   0.16519
 Alpha virt. eigenvalues --    0.17021   0.17382   0.18014   0.18502   0.19481

 Mulliken atomic charges:
              1
     1  C   -0.432344
     2  C   -0.341284
     3  C    0.198530
     4  C   -0.221664
     5  C   -0.197396
     6  C    0.351178
     7  C   -0.188263
     8  C   -0.213112
     9  O   -0.447845
    10  C   -0.225788
    11  H    0.143506
    12  H    0.153322
    13  H    0.151477
    14  H    0.145139
    15  H    0.142219
    16  H    0.111399
    17  H    0.118226
    18  H    0.123303
    19  H    0.110820
    20  H    0.176722
    21  H    0.170985
    22  H    0.170870
 Sum of Mulliken atomic charges =  -0.00000

 Dipole moment (field-independent basis, Debye):
    X=              1.4300    Y=             -1.3755    Z=              0.2130  Tot=              1.9956
 Quadrupole moment (field-independent basis, Debye-Ang):
   XX=            -47.6528   YY=            -58.6347   ZZ=            -63.0234
   XY=             -4.3169   XZ=              1.1849   YZ=             -0.0629

 Summary of Natural Population Analysis:

                                       Natural Population
                Natural  -----------------------------------------------
    Atom  No    Charge         Core      Valence    Rydberg      Total
 -----------------------------------------------------------------------
      C    1   -0.66247      1.99944     4.65601    0.00703     6.66247
      C    2   -0.47604      1.99929     4.46483    0.01192     6.47604
      C    3    0.04063      1.99904     3.94262    0.01771     5.95937
      C    4   -0.28400      1.99906     4.26575    0.01918     6.28400
      C    5   -0.33760      1.99905     4.32096    0.01759     6.33760
      C    6    0.33015      1.99879     3.64798    0.02308     5.66985
      C    7   -0.31463      1.99907     4.29476    0.02080     6.31463
      C    8   -0.28933      1.99906     4.27189    0.01837     6.28933
      O    9   -0.42870      1.99975     6.41726    0.01168     8.42870
      C   10   -0.32499      1.99942     4.31145    0.01412     6.32499
      H   11    0.23045      0.00000     0.76840    0.00115     0.76955
      H   12    0.23131      0.00000     0.76736    0.00133     0.76869
      H   13    0.23046      0.00000     0.76821    0.00133     0.76954
      H   14    0.24148      0.00000     0.75620    0.00232     0.75852
      H   15    0.23882      0.00000     0.75907    0.00211     0.76118
      H   16    0.22417      0.00000     0.77474    0.00109     0.77583
      H   17    0.22577      0.00000     0.77322    0.00100     0.77423
      H   18    0.23543      0.00000     0.76330    0.00126     0.76457
      H   19    0.22484      0.00000     0.77412    0.00104     0.77516
      H   20    0.23093      0.00000     0.76853    0.00054     0.76907
      H   21    0.21664      0.00000     0.78134    0.00202     0.78336
      H   22    0.21665      0.00000     0.78126    0.00208     0.78335
 =======================================================================
   * Total *   -0.00000     19.99197    53.82927    0.17876    74.00000

 Normal termination of Gaussian 09 at Tue Sep 28 19:55:13 2021.
