 Gaussian 09, Revision A.02,

 -----------------------------------
 #p opt b3lyp/6-31G* scf=(xqc,tight)
 -----------------------------------

 --------------------------------------
 [Li][Zn](c1ccccc1)(C)(C)(C)[Li]_conf_0
 --------------------------------------
 Symbolic Z-matrix:
 Charge =  0 Multiplicity = 1

 SCF Done:  E(RB3LYP) =  -2145.38713242     A.U. after   19 cycles
 SCF Done:  E(RB3LYP) =  -2145.41425610     A.U. after   14 cycles
 SCF Done:  E(RB3LYP) =  -2145.44997641     A.U. after   14 cycles
 SCF Done:  E(RB3LYP) =  -2145.46907092     A.U. after   13 cycles
 SCF Done:  E(RB3LYP) =  -2145.50622217     A.U. after   12 cycles
 SCF Done:  E(RB3LYP) =  -2145.54084593     A.U. after   14 cycles
 SCF Done:  E(RB3LYP) =  -2145.56212682     A.U. after   12 cycles
 SCF Done:  E(RB3LYP) =  -2145.57281857     A.U. after   12 cycles
 SCF Done:  E(RB3LYP) =  -2145.57575444     A.U. after   11 cycles
 SCF Done:  E(RB3LYP) =  -2145.57885781     A.U. after   11 cycles
 SCF Done:  E(RB3LYP) =  -2145.59559103     A.U. after    7 cycles
 SCF Done:  E(RB3LYP) =  -2145.59559110     A.U. after    7 cycles
 SCF Done:  E(RB3LYP) =  -2145.59559119     A.U. after    8 cycles
 SCF Done:  E(RB3LYP) =  -2145.59559145     A.U. after    8 cycles
 SCF Done:  E(RB3LYP) =  -2145.59559190     A.U. after    9 cycles
 SCF Done:  E(RB3LYP) =  -2145.59559218     A.U. after    8 cycles
 SCF Done:  E(RB3LYP) =  -2145.59559229     A.U. after   14 cycles
 SCF Done:  E(RB3LYP) =  -2145.59559236     A.U. after    7 cycles
 Optimization completed.
    -- Stationary point found.
 Normal termination of Gaussian 09 at Sun Oct  3 15:04:47 2021.

 ----------------------------------------------------------------------
 #p freq b3lyp/6-31G* volume NMR pop=NPA density=current Geom=AllCheck
 Guess=Read
 ----------------------------------------------------------------------

 [Li][Zn](c1ccccc1)(C)(C)(C)[Li]_conf_0
 --------------------------------------
 Redundant internal coordinates taken from checkpoint file:
 C9H14Li2Zn_960f_conf_0.chk
 Charge =  0 Multiplicity = 1

 SCF Done:  E(RB3LYP) =  -2145.59559236     A.U. after    1 cycles

  1  Li   Isotropic =    89.2672   Anisotropy =    10.4031

  2  Zn   Isotropic =  1587.8789   Anisotropy =   528.6488

  3  C    Isotropic =    31.8495   Anisotropy =   264.1795

  4  C    Isotropic =    63.8932   Anisotropy =   157.8629

  5  C    Isotropic =    63.8583   Anisotropy =   170.1682

  6  C    Isotropic =    67.3370   Anisotropy =   167.5001

  7  C    Isotropic =    63.8586   Anisotropy =   170.1673

  8  C    Isotropic =    63.8993   Anisotropy =   157.8571

  9  C    Isotropic =   204.2532   Anisotropy =    16.2060

 10  C    Isotropic =   204.2330   Anisotropy =    16.2131

 11  C    Isotropic =   197.8460   Anisotropy =     3.5608

 12  Li   Isotropic =    89.2744   Anisotropy =    10.3874

 13  H    Isotropic =    24.2944   Anisotropy =     9.7682

 14  H    Isotropic =    24.7620   Anisotropy =     5.8025

 15  H    Isotropic =    25.0445   Anisotropy =     4.7835

 16  H    Isotropic =    24.7624   Anisotropy =     5.8027

 17  H    Isotropic =    24.2950   Anisotropy =     9.7689

 18  H    Isotropic =    32.3666   Anisotropy =    11.9047

 19  H    Isotropic =    33.2156   Anisotropy =     9.5321

 20  H    Isotropic =    32.3483   Anisotropy =    13.1279

 21  H    Isotropic =    32.3489   Anisotropy =    13.1259

 22  H    Isotropic =    33.2188   Anisotropy =     9.5239

 23  H    Isotropic =    32.3655   Anisotropy =    11.9040

 24  H    Isotropic =    33.3431   Anisotropy =     8.2378

 25  H    Isotropic =    34.4833   Anisotropy =     9.0765

 26  H    Isotropic =    34.4743   Anisotropy =     9.0920

  Exact polarizability: 164.563   0.000 142.868   0.059   0.041 104.073
 Approx polarizability: 230.308   0.016 225.405  -5.595   0.099 147.005

                     1                      2                      3
                     A                      A                      A
 Frequencies --    31.1346                54.5171                58.9457
 Red. masses --     1.0329                 3.0863                 1.5399
 Frc consts  --     0.0006                 0.0054                 0.0032
 IR Inten    --     0.2968                 0.7163                 0.9175

                     4                      5                      6
                     A                      A                      A
 Frequencies --    64.6540                80.7266               100.7064
 Red. masses --     3.5984                 1.7332                 2.7199
 Frc consts  --     0.0089                 0.0067                 0.0163
 IR Inten    --     0.0063                 0.2676                 0.0065

                     7                      8                      9
                     A                      A                      A
 Frequencies --   103.9901               131.5736               134.3268
 Red. masses --     3.0351                 1.9281                 2.7285
 Frc consts  --     0.0193                 0.0197                 0.0290
 IR Inten    --    10.6111                 3.7213                 6.6641

                    10                     11                     12
                     A                      A                      A
 Frequencies --   168.6441               174.0027               182.4505
 Red. masses --     3.0767                 2.1561                 4.6921
 Frc consts  --     0.0516                 0.0385                 0.0920
 IR Inten    --     0.4645                 2.4134                12.9006

                    13                     14                     15
                     A                      A                      A
 Frequencies --   212.9441               230.3069               243.9370
 Red. masses --     4.2679                 5.3903                 3.2325
 Frc consts  --     0.1140                 0.1685                 0.1133
 IR Inten    --    13.9135                11.9435                64.6658

                    16                     17                     18
                     A                      A                      A
 Frequencies --   299.4149               383.4875               402.2533
 Red. masses --     2.0423                 3.0282                 2.7571
 Frc consts  --     0.1079                 0.2624                 0.2628
 IR Inten    --     6.9798                24.4770                 3.0529

                    19                     20                     21
                     A                      A                      A
 Frequencies --   424.3494               449.0313               471.2843
 Red. masses --     4.6922                 3.7817                 4.3260
 Frc consts  --     0.4978                 0.4493                 0.5661
 IR Inten    --    52.1401                 4.5764                45.2691

                    22                     23                     24
                     A                      A                      A
 Frequencies --   471.6805               508.4102               526.6982
 Red. masses --     2.8368                 1.6593                 4.6924
 Frc consts  --     0.3719                 0.2527                 0.7670
 IR Inten    --    27.2385                87.1805                51.3645

                    25                     26                     27
                     A                      A                      A
 Frequencies --   538.1792               587.5015               637.0348
 Red. masses --     3.7492                 1.2319                 5.7558
 Frc consts  --     0.6398                 0.2505                 1.3762
 IR Inten    --   137.5589                11.5878                 0.4076

                    28                     29                     30
                     A                      A                      A
 Frequencies --   645.4407               647.2488               658.5073
 Red. masses --     1.5813                 3.5152                 1.2593
 Frc consts  --     0.3881                 0.8677                 0.3217
 IR Inten    --    43.4354                27.0041                13.3707

                    31                     32                     33
                     A                      A                      A
 Frequencies --   713.0563               736.6639               742.6166
 Red. masses --     1.3173                 1.1413                 4.1830
 Frc consts  --     0.3946                 0.3649                 1.3592
 IR Inten    --   116.5878                36.9400                 3.3337

                    34                     35                     36
                     A                      A                      A
 Frequencies --   886.8979               929.6192               986.4999
 Red. masses --     1.2475                 1.3079                 1.3922
 Frc consts  --     0.5781                 0.6659                 0.7982
 IR Inten    --     0.8583                 1.0067                 0.1808

                    37                     38                     39
                     A                      A                      A
 Frequencies --  1007.6632              1015.4155              1034.9869
 Red. masses --     1.9371                 2.2749                 6.7892
 Frc consts  --     1.1589                 1.3819                 4.2849
 IR Inten    --     2.0478                 3.1339                 6.4885

                    40                     41                     42
                     A                      A                      A
 Frequencies --  1083.0586              1093.1355              1192.1600
 Red. masses --     1.9090                 1.8154                 1.1068
 Frc consts  --     1.3194                 1.2781                 0.9268
 IR Inten    --    15.2604                 0.0961                 0.0169

                    43                     44                     45
                     A                      A                      A
 Frequencies --  1222.6615              1234.6176              1274.7939
 Red. masses --     1.1712                 1.1787                 1.1998
 Frc consts  --     1.0316                 1.0585                 1.1488
 IR Inten    --     0.1520                 6.7151                16.8492

                    46                     47                     48
                     A                      A                      A
 Frequencies --  1281.2198              1292.5634              1368.9314
 Red. masses --     1.1823                 4.0736                 1.5417
 Frc consts  --     1.1435                 4.0099                 1.7022
 IR Inten    --     2.5374                16.1780                 0.0560

                    49                     50                     51
                     A                      A                      A
 Frequencies --  1462.8321              1477.9685              1481.8983
 Red. masses --     1.9471                 1.0606                 1.0580
 Frc consts  --     2.4549                 1.3650                 1.3689
 IR Inten    --     6.2094                 1.3883                 0.2266

                    52                     53                     54
                     A                      A                      A
 Frequencies --  1485.7247              1492.8333              1504.3492
 Red. masses --     1.0565                 1.0673                 1.0561
 Frc consts  --     1.3740                 1.4013                 1.4082
 IR Inten    --     1.0587                 0.3962                 0.4521

                    55                     56                     57
                     A                      A                      A
 Frequencies --  1508.6498              1522.5583              1614.1817
 Red. masses --     1.0542                 1.8670                 4.3880
 Frc consts  --     1.4137                 2.5501                 6.7363
 IR Inten    --     1.0410                 0.9950                 0.3754

                    58                     59                     60
                     A                      A                      A
 Frequencies --  1630.5656              2924.3975              2932.2960
 Red. masses --     4.9843                 1.0460                 1.0634
 Frc consts  --     7.8078                 5.2705                 5.3870
 IR Inten    --     1.4238                39.8875                74.9450

                    61                     62                     63
                     A                      A                      A
 Frequencies --  2934.9267              2958.8333              3029.6072
 Red. masses --     1.0627                 1.0922                 1.0886
 Frc consts  --     5.3932                 5.6336                 5.8871
 IR Inten    --    65.5760                88.5758                43.0839

                    64                     65                     66
                     A                      A                      A
 Frequencies --  3051.0587              3051.6006              3080.9159
 Red. masses --     1.0675                 1.0673                 1.0855
 Frc consts  --     5.8550                 5.8559                 6.0705
 IR Inten    --     4.9019                48.6113                54.7040

                    67                     68                     69
                     A                      A                      A
 Frequencies --  3081.4740              3096.3481              3096.6871
 Red. masses --     1.0862                 1.0980                 1.0979
 Frc consts  --     6.0769                 6.2023                 6.2034
 IR Inten    --     6.3861                 0.9887                44.1599

                    70                     71                     72
                     A                      A                      A
 Frequencies --  3175.2697              3182.1968              3203.5887
 Red. masses --     1.0872                 1.0916                 1.0964
 Frc consts  --     6.4583                 6.5126                 6.6299
 IR Inten    --     2.8799                35.2572                33.2146

 - Thermochemistry -
 -------------------
 Temperature   298.150 Kelvin.  Pressure   1.00000 Atm.
 Atom     1 has atomic number  3 and mass   7.01600

 Molecular mass:   200.07070 amu.
 Principal axes and moments of inertia in atomic units:
                           1         2         3
     Eigenvalues --  1465.731343302.921103471.98399
           X            0.99991  -0.00003   0.01374
           Y            0.00003   1.00000   0.00007
           Z           -0.01374  -0.00007   0.99991
 This molecule is an asymmetric top.
 Rotational symmetry number  1.
 Warning -- assumption of classical behavior for rotation
           may cause significant error
 Rotational temperatures (Kelvin)      0.05909     0.02622     0.02495
 Rotational constants (GHZ):           1.23129     0.54641     0.51980
 Zero-point vibrational energy     518585.4 (Joules/Mol)
                                  123.94488 (Kcal/Mol)
 Warning -- explicit consideration of  26 degrees of freedom as
           vibrations may cause significant error
 Vibrational temperatures:     44.80    78.44    84.81    93.02   116.15
          (Kelvin)            144.89   149.62   189.30   193.27   242.64
                              250.35   262.51   306.38   331.36   350.97
                              430.79   551.75   578.75   610.54   646.06
                              678.07   678.64   731.49   757.80   774.32
                              845.28   916.55   928.64   931.25   947.44
                             1025.93  1059.89  1068.46  1276.05  1337.51
                             1419.35  1449.80  1460.95  1489.11  1558.28
                             1572.78  1715.25  1759.13  1776.34  1834.14
                             1843.39  1859.71  1969.58  2104.69  2126.46
                             2132.12  2137.62  2147.85  2164.42  2170.61
                             2190.62  2322.44  2346.02  4207.55  4218.91
                             4222.70  4257.10  4358.92  4389.79  4390.57
                             4432.75  4433.55  4454.95  4455.44  4568.50
                             4578.47  4609.24

 Zero-point correction=                           0.197519 (Hartree/Particle)
 Thermal correction to Energy=                    0.214773
 Thermal correction to Enthalpy=                  0.215718
 Thermal correction to Gibbs Free Energy=         0.152178
 Sum of electronic and zero-point Energies=          -2145.398074
 Sum of electronic and thermal Energies=             -2145.380819
 Sum of electronic and thermal Enthalpies=           -2145.379875
 Sum of electronic and thermal Free Energies=        -2145.443414

                     E (Thermal)             CV                S
                      KCal/Mol        Cal/Mol-Kelvin    Cal/Mol-Kelvin
 Total                  134.772             60.231            133.730
 Electronic               0.000              0.000              0.000
 Translational            0.889              2.981             41.785
 Rotational               0.889              2.981             31.197
 Vibrational            132.995             54.270             60.748
 Vibration     1          0.594              1.983              5.756
 Vibration     2          0.596              1.976              4.646
 Vibration     3          0.596              1.974              4.492
 Vibration     4          0.597              1.971              4.310
 Vibration     5          0.600              1.962              3.873
 Vibration     6          0.604              1.949              3.441
 Vibration     7          0.605              1.946              3.378
 Vibration     8          0.612              1.922              2.923
 Vibration     9          0.613              1.919              2.883
 Vibration    10          0.625              1.881              2.451
 Vibration    11          0.627              1.874              2.392
 Vibration    12          0.630              1.864              2.303
 Vibration    13          0.644              1.821              2.018
 Vibration    14          0.652              1.795              1.877
 Vibration    15          0.659              1.773              1.774
 Vibration    16          0.692              1.675              1.420
 Vibration    17          0.753              1.505              1.025
 Vibration    18          0.768              1.465              0.954
 Vibration    19          0.786              1.417              0.877
 Vibration    20          0.808              1.363              0.799
 Vibration    21          0.828              1.314              0.734
 Vibration    22          0.829              1.313              0.733
 Vibration    23          0.864              1.231              0.637
 Vibration    24          0.882              1.191              0.595
 Vibration    25          0.893              1.166              0.569
 Vibration    26          0.945              1.058              0.472

 Normal termination of Gaussian 09 at Sun Oct  3 16:49:24 2021.
 Gaussian 09:  AM64L-G09RevA.02 11-Jun-2009

 ----------------------------------------------------------------------
 #p TD(NStates=10, Root=1) b3lyp/6-31G* volume pop=NPA density=current
 Geom=AllCheck Guess=Read
 ----------------------------------------------------------------------

 [Li][Zn](c1ccccc1)(C)(C)(C)[Li]_conf_0
 --------------------------------------
 Redundant internal coordinates taken from checkpoint file:
 C9H14Li2Zn_960f_conf_0.chk
 Charge =  0 Multiplicity = 1

                         Standard orientation:
 ---------------------------------------------------------------------
 Center     Atomic      Atomic             Coordinates (Angstroms)
 Number     Number       Type             X           Y           Z
 ---------------------------------------------------------------------
      1          3           0        0.496040    1.266524    1.234313
      2         30           0        1.358398    0.000963   -0.618990
      3          6           0       -0.741315    0.000395   -0.274131
      4          6           0       -1.502744    1.190553   -0.224197
      5          6           0       -2.896479    1.204639   -0.097606
      6          6           0       -3.598071    0.000069   -0.025608
      7          6           0       -2.896458   -1.204312   -0.100533
      8          6           0       -1.502728   -1.189894   -0.227099
      9          6           0        2.071277    1.883976   -0.472655
     10          6           0        2.071110   -1.882610   -0.476661
     11          6           0        1.099897   -0.004146    2.770714
     12          3           0        0.496123   -1.269614    1.230555
     13          1           0       -0.998922    2.157766   -0.330400
     14          1           0       -3.434422    2.149896   -0.069582
     15          1           0       -4.680498   -0.000064    0.071776
     16          1           0       -3.434392   -2.149640   -0.074811
     17          1           0       -0.998905   -2.156852   -0.335657
     18          1           0        3.010809    1.939230    0.091469
     19          1           0        1.418439    2.686885   -0.073446
     20          1           0        2.298614    2.237877   -1.487850
     21          1           0        2.297513   -2.234646   -1.492715
     22          1           0        1.418709   -2.686425   -0.078470
     23          1           0        3.011103   -1.939020    0.086572
     24          1           0        2.199504   -0.009082    2.853477
     25          1           0        0.764574   -0.862285    3.389155
     26          1           0        0.772519    0.854729    3.392248
 ---------------------------------------------------------------------

 SCF Done:  E(RB3LYP) =  -2145.59559236     A.U. after    1 cycles

 Excitation energies and oscillator strengths:

 Excited State   1:      Singlet-A      4.0311 eV  307.57 nm  f=0.0121  <S**2>=0.000
      51 -> 53         0.30656
      52 -> 53         0.62614
 This state for optimization and/or second-order correction.
 Total Energy, E(TD-HF/TD-KS) =  -2145.44745180
 Copying the excited state density for this state as the 1-particle RhoCI density.

 Excited State   2:      Singlet-A      4.1893 eV  295.95 nm  f=0.0108  <S**2>=0.000
      51 -> 53         0.61910
      52 -> 53        -0.29574
      52 -> 55        -0.14662

 Excited State   3:      Singlet-A      4.1959 eV  295.49 nm  f=0.0001  <S**2>=0.000
      51 -> 54         0.40900
      52 -> 54         0.57039

 Excited State   4:      Singlet-A      4.4047 eV  281.48 nm  f=0.0017  <S**2>=0.000
      51 -> 54         0.56252
      52 -> 54        -0.40890

 Excited State   5:      Singlet-A      4.7490 eV  261.07 nm  f=0.0132  <S**2>=0.000
      50 -> 53         0.69713

 Excited State   6:      Singlet-A      4.7593 eV  260.51 nm  f=0.0802  <S**2>=0.000
      51 -> 53         0.12245
      51 -> 55         0.12598
      52 -> 55         0.67077

 Excited State   7:      Singlet-A      4.9426 eV  250.85 nm  f=0.0228  <S**2>=0.000
      50 -> 54        -0.10784
      51 -> 55         0.66551
      52 -> 55        -0.11771
      52 -> 57        -0.10368

 Excited State   8:      Singlet-A      5.0026 eV  247.84 nm  f=0.0035  <S**2>=0.000
      49 -> 53        -0.10843
      52 -> 56         0.68879

 Excited State   9:      Singlet-A      5.1178 eV  242.26 nm  f=0.0007  <S**2>=0.000
      50 -> 54         0.69658
      51 -> 55         0.10430

 Excited State  10:      Singlet-A      5.2151 eV  237.74 nm  f=0.0000  <S**2>=0.000
      48 -> 54         0.10263
      49 -> 53         0.14952
      50 -> 55         0.16680
      51 -> 56         0.65090

 The electronic state is 1-A.
 Alpha  occ. eigenvalues -- -347.23993 -42.21150 -37.19726 -37.19406 -37.19354
 Alpha  occ. eigenvalues --  -10.19946 -10.19937 -10.19767 -10.19592 -10.19591
 Alpha  occ. eigenvalues --  -10.16872 -10.14567 -10.14566 -10.11803  -4.78216
 Alpha  occ. eigenvalues --   -3.17758  -3.16947  -3.16852  -1.97008  -1.96930
 Alpha  occ. eigenvalues --   -0.85118  -0.74789  -0.74028  -0.66104  -0.65577
 Alpha  occ. eigenvalues --   -0.63335  -0.60555  -0.59532  -0.51912  -0.45994
 Alpha  occ. eigenvalues --   -0.45087  -0.43996  -0.43923  -0.43664  -0.43427
 Alpha  occ. eigenvalues --   -0.43053  -0.42289  -0.39653  -0.37506  -0.37250
 Alpha  occ. eigenvalues --   -0.36847  -0.36827  -0.36230  -0.35536  -0.34855
 Alpha  occ. eigenvalues --   -0.34154  -0.32490  -0.26059  -0.25969  -0.23557
 Alpha  occ. eigenvalues --   -0.21622  -0.20855
 Alpha virt. eigenvalues --   -0.03022  -0.02230  -0.00586   0.00370   0.01473
 Alpha virt. eigenvalues --    0.03894   0.04311   0.05438   0.05838   0.08079
 Alpha virt. eigenvalues --    0.08810   0.09919   0.11015   0.11192   0.12040

 Mulliken atomic charges:
              1
     1  Li   0.013916
     2  Zn   0.623898
     3  C   -0.165878
     4  C   -0.198509
     5  C   -0.097498
     6  C   -0.168511
     7  C   -0.097535
     8  C   -0.198477
     9  C   -0.737682
    10  C   -0.737628
    11  C   -0.726946
    12  Li   0.013205
    13  H    0.170977
    14  H    0.132597
    15  H    0.122123
    16  H    0.132587
    17  H    0.171027
    18  H    0.175595
    19  H    0.179444
    20  H    0.186885
    21  H    0.186902
    22  H    0.179539
    23  H    0.175623
    24  H    0.218160
    25  H    0.223141
    26  H    0.223045
 Sum of Mulliken atomic charges =  -0.00000

 Dipole moment (field-independent basis, Debye):
    X=              0.4371    Y=             -0.0069    Z=              2.3212  Tot=              2.3620
 Quadrupole moment (field-independent basis, Debye-Ang):
   XX=            -80.9888   YY=            -80.0174   ZZ=            -80.8329
   XY=             -0.0055   XZ=              2.4865   YZ=             -0.0066

 Summary of Natural Population Analysis:

                                       Natural Population
                Natural  -----------------------------------------------
    Atom  No    Charge         Core      Valence    Rydberg      Total
 -----------------------------------------------------------------------
     Li    1    0.49176      1.99064     0.50244    0.01515     2.50824
     Zn    2    0.99011     17.99102    11.00952    0.00935    29.00989
      C    3   -0.48422      1.99881     4.45096    0.03445     6.48422
      C    4   -0.29966      1.99902     4.28205    0.01859     6.29966
      C    5   -0.21226      1.99905     4.19786    0.01535     6.21226
      C    6   -0.28642      1.99908     4.27125    0.01609     6.28642
      C    7   -0.21232      1.99905     4.19792    0.01536     6.21232
      C    8   -0.29959      1.99902     4.28199    0.01858     6.29959
      C    9   -1.23417      1.99949     5.21443    0.02025     7.23417
      C   10   -1.23414      1.99949     5.21440    0.02025     7.23414
      C   11   -1.04073      1.99929     5.02678    0.01466     7.04073
     Li   12    0.49172      1.99064     0.50249    0.01515     2.50828
      H   13    0.23311      0.00000     0.76542    0.00146     0.76689
      H   14    0.23966      0.00000     0.75925    0.00109     0.76034
      H   15    0.23333      0.00000     0.76582    0.00085     0.76667
      H   16    0.23966      0.00000     0.75925    0.00109     0.76034
      H   17    0.23310      0.00000     0.76543    0.00146     0.76690
      H   18    0.24111      0.00000     0.75684    0.00204     0.75889
      H   19    0.20965      0.00000     0.78889    0.00147     0.79035
      H   20    0.26537      0.00000     0.73357    0.00106     0.73463
      H   21    0.26538      0.00000     0.73356    0.00106     0.73462
      H   22    0.20958      0.00000     0.78896    0.00147     0.79042
      H   23    0.24114      0.00000     0.75682    0.00204     0.75886
      H   24    0.24168      0.00000     0.75767    0.00065     0.75832
      H   25    0.23850      0.00000     0.76114    0.00036     0.76150
      H   26    0.23864      0.00000     0.76101    0.00035     0.76136
 =======================================================================
   * Total *   -0.00000     39.96460    63.80570    0.22970   104.00000

 Normal termination of Gaussian 09 at Sun Oct  3 21:23:29 2021.
