 Gaussian 09, Revision A.02,

 -----------------------------------
 #p opt b3lyp/6-31G* scf=(xqc,tight)
 -----------------------------------

 ---------------------------
 COC(=O)Oc1ccc(cc1)OC_conf_0
 ---------------------------
 Symbolic Z-matrix:
 Charge =  0 Multiplicity = 1

 SCF Done:  E(RB3LYP) =  -649.860523755     A.U. after   15 cycles
 SCF Done:  E(RB3LYP) =  -649.864206169     A.U. after   12 cycles
 SCF Done:  E(RB3LYP) =  -649.861532841     A.U. after   13 cycles
 SCF Done:  E(RB3LYP) =  -649.864770399     A.U. after   12 cycles
 SCF Done:  E(RB3LYP) =  -649.865331512     A.U. after   12 cycles
 SCF Done:  E(RB3LYP) =  -649.865606796     A.U. after   12 cycles
 SCF Done:  E(RB3LYP) =  -649.865829455     A.U. after   12 cycles
 SCF Done:  E(RB3LYP) =  -649.865964667     A.U. after   11 cycles
 SCF Done:  E(RB3LYP) =  -649.866137725     A.U. after   11 cycles
 SCF Done:  E(RB3LYP) =  -649.866376386     A.U. after   11 cycles
 SCF Done:  E(RB3LYP) =  -649.866646980     A.U. after   10 cycles
 SCF Done:  E(RB3LYP) =  -649.866741349     A.U. after   10 cycles
 SCF Done:  E(RB3LYP) =  -649.866763116     A.U. after   10 cycles
 SCF Done:  E(RB3LYP) =  -649.866764537     A.U. after    9 cycles
 SCF Done:  E(RB3LYP) =  -649.866764970     A.U. after    8 cycles
 SCF Done:  E(RB3LYP) =  -649.866765370     A.U. after    8 cycles
 SCF Done:  E(RB3LYP) =  -649.866765560     A.U. after    8 cycles
 SCF Done:  E(RB3LYP) =  -649.866765627     A.U. after    7 cycles
 Optimization completed.
    -- Stationary point found.
 Normal termination of Gaussian 09 at Thu Sep 30 01:54:15 2021.

 ----------------------------------------------------------------------
 #p freq b3lyp/6-31G* volume NMR pop=NPA density=current Geom=AllCheck
 Guess=Read
 ----------------------------------------------------------------------

 COC(=O)Oc1ccc(cc1)OC_conf_0
 ---------------------------
 Redundant internal coordinates taken from checkpoint file:
 C9H10O4_9258_conf_0.chk
 Charge =  0 Multiplicity = 1

 SCF Done:  E(RB3LYP) =  -649.866765627     A.U. after    1 cycles

  1  C    Isotropic =   136.6457   Anisotropy =    68.4922

  2  O    Isotropic =   195.0293   Anisotropy =   142.8587

  3  C    Isotropic =    43.8390   Anisotropy =    88.7604

  4  O    Isotropic =    54.0497   Anisotropy =   394.1653

  5  O    Isotropic =   146.8526   Anisotropy =   129.2284

  6  C    Isotropic =    51.0361   Anisotropy =    98.3013

  7  C    Isotropic =    75.6028   Anisotropy =   140.6228

  8  C    Isotropic =    86.8119   Anisotropy =   142.1796

  9  C    Isotropic =    41.7580   Anisotropy =   125.3025

 10  C    Isotropic =    78.0322   Anisotropy =   134.5960

 11  C    Isotropic =    72.5774   Anisotropy =   153.4155

 12  O    Isotropic =   239.1046   Anisotropy =    79.0513

 13  C    Isotropic =   137.4436   Anisotropy =    65.2155

 14  H    Isotropic =    28.7224   Anisotropy =     7.6621

 15  H    Isotropic =    28.4107   Anisotropy =     8.0971

 16  H    Isotropic =    28.4526   Anisotropy =     8.1605

 17  H    Isotropic =    25.4589   Anisotropy =     6.1669

 18  H    Isotropic =    25.8735   Anisotropy =     6.9780

 19  H    Isotropic =    25.4800   Anisotropy =     5.7186

 20  H    Isotropic =    24.9284   Anisotropy =     7.9326

 21  H    Isotropic =    28.2882   Anisotropy =     8.0817

 22  H    Isotropic =    28.6680   Anisotropy =     8.0459

 23  H    Isotropic =    28.6656   Anisotropy =     7.9874

  Exact polarizability: 162.435  -0.821  98.203   5.071  -4.408  56.516
 Approx polarizability: 204.948   5.230 172.603  10.975  -4.574  86.815

                     1                      2                      3
                     A                      A                      A
 Frequencies --    30.2113                50.2664                78.1344
 Red. masses --     4.7326                 4.9621                 3.6233
 Frc consts  --     0.0025                 0.0074                 0.0130
 IR Inten    --     0.6865                 2.2021                 1.3333

                     4                      5                      6
                     A                      A                      A
 Frequencies --   100.7289               122.8835               162.7724
 Red. masses --     4.1823                 1.2085                 3.1524
 Frc consts  --     0.0250                 0.0108                 0.0492
 IR Inten    --     1.3746                 0.4768                 4.9412

                     7                      8                      9
                     A                      A                      A
 Frequencies --   187.6473               231.3024               254.4061
 Red. masses --     3.7006                 3.5322                 1.2536
 Frc consts  --     0.0768                 0.1113                 0.0478
 IR Inten    --     2.2284                 2.7093                 1.4407

                    10                     11                     12
                     A                      A                      A
 Frequencies --   276.3191               345.6423               385.6220
 Red. masses --     5.0582                 4.7127                 6.2276
 Frc consts  --     0.2275                 0.3317                 0.5456
 IR Inten    --     7.3865                11.9208                 8.1011

                    13                     14                     15
                     A                      A                      A
 Frequencies --   396.5336               431.6027               484.4252
 Red. masses --     6.2055                 3.2369                 4.4160
 Frc consts  --     0.5749                 0.3553                 0.6106
 IR Inten    --     2.6812                 0.0325                 1.9615

                    16                     17                     18
                     A                      A                      A
 Frequencies --   530.8227               582.0074               645.6401
 Red. masses --     2.5174                 5.4089                 6.9191
 Frc consts  --     0.4179                 1.0795                 1.6994
 IR Inten    --     6.8616                10.9465                 0.1035

                    19                     20                     21
                     A                      A                      A
 Frequencies --   700.6770               737.0493               771.4532
 Red. masses --     4.7381                 5.7533                 6.7651
 Frc consts  --     1.3705                 1.8414                 2.3722
 IR Inten    --     0.4113                 3.4676                22.6024

                    22                     23                     24
                     A                      A                      A
 Frequencies --   773.1431               814.2373               843.6797
 Red. masses --     8.6157                 1.2532                 1.8051
 Frc consts  --     3.0343                 0.4895                 0.7570
 IR Inten    --    26.3190                 1.8468                47.1512

                    25                     26                     27
                     A                      A                      A
 Frequencies --   864.6349               932.6433               949.0779
 Red. masses --     5.8462                 1.3474                 1.3513
 Frc consts  --     2.5751                 0.6905                 0.7172
 IR Inten    --     8.2029                 1.3225                 3.9283

                    28                     29                     30
                     A                      A                      A
 Frequencies --   966.4729              1031.4844              1079.6672
 Red. masses --     4.9036                 2.7320                 6.7527
 Frc consts  --     2.6986                 1.7126                 4.6378
 IR Inten    --    38.4897                 8.8514                74.2210

                    31                     32                     33
                     A                      A                      A
 Frequencies --  1104.0444              1140.7630              1185.2819
 Red. masses --     5.4846                 1.2777                 1.2705
 Frc consts  --     3.9388                 0.9797                 1.0517
 IR Inten    --    22.5946                11.8044                 0.7829

                    34                     35                     36
                     A                      A                      A
 Frequencies --  1189.1077              1196.8839              1218.9207
 Red. masses --     1.2656                 1.1503                 1.3917
 Frc consts  --     1.0543                 0.9709                 1.2182
 IR Inten    --     0.8188                10.8655                21.5697

                    37                     38                     39
                     A                      A                      A
 Frequencies --  1224.2263              1257.8079              1294.2112
 Red. masses --     1.5489                 3.5447                 7.7185
 Frc consts  --     1.3677                 3.3041                 7.6172
 IR Inten    --    63.1346               462.8476               832.5995

                    40                     41                     42
                     A                      A                      A
 Frequencies --  1318.8954              1339.3959              1363.9266
 Red. masses --     6.5291                 1.3165                 8.7859
 Frc consts  --     6.6915                 1.3915                 9.6298
 IR Inten    --   396.7305                 0.2921                66.4082

                    43                     44                     45
                     A                      A                      A
 Frequencies --  1467.5620              1497.2963              1499.8561
 Red. masses --     3.2507                 1.2064                 1.2002
 Frc consts  --     4.1250                 1.5935                 1.5907
 IR Inten    --     0.2321                58.2923                14.2164

                    46                     47                     48
                     A                      A                      A
 Frequencies --  1513.8480              1520.5780              1526.2978
 Red. masses --     1.0480                 1.0482                 1.0516
 Frc consts  --     1.4151                 1.4280                 1.4434
 IR Inten    --     6.2882                 5.5089                 8.5712

                    49                     50                     51
                     A                      A                      A
 Frequencies --  1534.8144              1562.1661              1646.0070
 Red. masses --     1.0711                 2.3929                 6.8624
 Frc consts  --     1.4866                 3.4406                10.9544
 IR Inten    --    46.7794               169.2337                 8.6770

                    52                     53                     54
                     A                      A                      A
 Frequencies --  1675.0739              1840.3431              3023.8865
 Red. masses --     6.0851                11.7510                 1.0349
 Frc consts  --    10.0597                23.4489                 5.5756
 IR Inten    --    16.5640               253.7682                56.5087

                    55                     56                     57
                     A                      A                      A
 Frequencies --  3076.7600              3082.1845              3152.3267
 Red. masses --     1.0298                 1.1067                 1.1080
 Frc consts  --     5.7439                 6.1942                 6.4873
 IR Inten    --    35.6361                44.9038                20.7548

                    58                     59                     60
                     A                      A                      A
 Frequencies --  3157.9589              3185.5491              3213.8197
 Red. masses --     1.0995                 1.1068                 1.0890
 Frc consts  --     6.4603                 6.6177                 6.6273
 IR Inten    --    26.3957                17.6163                10.3729

                    61                     62                     63
                     A                      A                      A
 Frequencies --  3216.9973              3234.0583              3247.8083
 Red. masses --     1.0900                 1.0925                 1.0934
 Frc consts  --     6.6465                 6.7323                 6.7956
 IR Inten    --     2.0545                 8.3427                 1.9703

 - Thermochemistry -
 -------------------
 Temperature   298.150 Kelvin.  Pressure   1.00000 Atm.
 Atom     1 has atomic number  6 and mass  12.00000

 Molecular mass:   182.05791 amu.
 Principal axes and moments of inertia in atomic units:
                           1         2         3
     Eigenvalues --   548.461295635.122505989.06942
           X            0.99996  -0.00899   0.00119
           Y            0.00903   0.99921  -0.03865
           Z           -0.00085   0.03866   0.99925
 This molecule is an asymmetric top.
 Rotational symmetry number  1.
 Warning -- assumption of classical behavior for rotation
           may cause significant error
 Rotational temperatures (Kelvin)      0.15792     0.01537     0.01446
 Rotational constants (GHZ):           3.29055     0.32027     0.30134
 Zero-point vibrational energy     475335.2 (Joules/Mol)
                                  113.60785 (Kcal/Mol)
 Warning -- explicit consideration of  17 degrees of freedom as
           vibrations may cause significant error
 Vibrational temperatures:     43.47    72.32   112.42   144.93   176.80
          (Kelvin)            234.19   269.98   332.79   366.03   397.56
                              497.30   554.82   570.52   620.98   696.98
                              763.73   837.38   928.93  1008.12  1060.45
                             1109.95  1112.38  1171.50  1213.87  1244.02
                             1341.86  1365.51  1390.54  1484.07  1553.40
                             1588.47  1641.30  1705.35  1710.86  1722.05
                             1753.75  1761.39  1809.70  1862.08  1897.59
                             1927.09  1962.38  2111.49  2154.27  2157.96
                             2178.09  2187.77  2196.00  2208.25  2247.61
                             2368.23  2410.05  2647.84  4350.69  4426.77
                             4434.57  4535.49  4543.59  4583.29  4623.96
                             4628.54  4653.08  4672.87

 Zero-point correction=                           0.181046 (Hartree/Particle)
 Thermal correction to Energy=                    0.193472
 Thermal correction to Enthalpy=                  0.194416
 Thermal correction to Gibbs Free Energy=         0.140949
 Sum of electronic and zero-point Energies=           -649.685720
 Sum of electronic and thermal Energies=              -649.673294
 Sum of electronic and thermal Enthalpies=            -649.672350
 Sum of electronic and thermal Free Energies=         -649.725816

                     E (Thermal)             CV                S
                      KCal/Mol        Cal/Mol-Kelvin    Cal/Mol-Kelvin
 Total                  121.405             44.832            112.530
 Electronic               0.000              0.000              0.000
 Translational            0.889              2.981             41.504
 Rotational               0.889              2.981             31.293
 Vibrational            119.628             38.871             39.733
 Vibration     1          0.594              1.984              5.816
 Vibration     2          0.595              1.977              4.807
 Vibration     3          0.599              1.964              3.937
 Vibration     4          0.604              1.949              3.440
 Vibration     5          0.610              1.930              3.055
 Vibration     6          0.623              1.888              2.517
 Vibration     7          0.632              1.857              2.251
 Vibration     8          0.653              1.793              1.869
 Vibration     9          0.665              1.755              1.700
 Vibration    10          0.678              1.717              1.556
 Vibration    11          0.724              1.584              1.186
 Vibration    12          0.754              1.501              1.017
 Vibration    13          0.763              1.478              0.975
 Vibration    14          0.793              1.401              0.853
 Vibration    15          0.841              1.285              0.698
 Vibration    16          0.886              1.182              0.585
 Vibration    17          0.939              1.070              0.482

 Optimization completed.
    -- Stationary point found.
 Normal termination of Gaussian 09 at Thu Sep 30 02:39:16 2021.
 Gaussian 09:  AM64L-G09RevA.02 11-Jun-2009

 ----------------------------------------------------------------------
 #p TD(NStates=10, Root=1) b3lyp/6-31G* volume pop=NPA density=current
 Geom=AllCheck Guess=Read
 ----------------------------------------------------------------------

 COC(=O)Oc1ccc(cc1)OC_conf_0
 ---------------------------
 Redundant internal coordinates taken from checkpoint file:
 C9H10O4_9258_conf_0.chk
 Charge =  0 Multiplicity = 1

                         Standard orientation:
 ---------------------------------------------------------------------
 Center     Atomic      Atomic             Coordinates (Angstroms)
 Number     Number       Type             X           Y           Z
 ---------------------------------------------------------------------
      1          6           0       -4.852826    0.072365    0.259610
      2          8           0       -3.676125   -0.564356   -0.263072
      3          6           0       -2.524217    0.028949    0.081587
      4          8           0       -2.410713    1.014892    0.770549
      5          8           0       -1.531997   -0.687554   -0.492461
      6          6           0       -0.198843   -0.305433   -0.297832
      7          6           0        0.695473   -1.324376   -0.000055
      8          6           0        2.059730   -1.046508    0.123528
      9          6           0        2.517472    0.263922   -0.052016
     10          6           0        1.601988    1.283108   -0.355635
     11          6           0        0.247414    1.004841   -0.484162
     12          8           0        3.823242    0.652323    0.046740
     13          6           0        4.793701   -0.334555    0.354731
     14          1           0       -5.688519   -0.522118   -0.110087
     15          1           0       -4.925267    1.102262   -0.099771
     16          1           0       -4.836505    0.074400    1.352597
     17          1           0        0.323349   -2.335681    0.129393
     18          1           0        2.743929   -1.854435    0.354702
     19          1           0        1.976874    2.292699   -0.489726
     20          1           0       -0.455722    1.796083   -0.712461
     21          1           0        5.752113    0.186939    0.385643
     22          1           0        4.832506   -1.117634   -0.414430
     23          1           0        4.602645   -0.798834    1.331556
 ---------------------------------------------------------------------

 SCF Done:  E(RB3LYP) =  -649.866765627     A.U. after    1 cycles

 Excitation energies and oscillator strengths:

 Excited State   1:      Singlet-A      5.0311 eV  246.44 nm  f=0.0334  <S**2>=0.000
      47 -> 50        -0.27398
      48 -> 49         0.64064
 This state for optimization and/or second-order correction.
 Total Energy, E(TD-HF/TD-KS) =  -649.681877415
 Copying the excited state density for this state as the 1-particle RhoCI density.

 Excited State   2:      Singlet-A      5.6644 eV  218.88 nm  f=0.2558  <S**2>=0.000
      47 -> 49         0.20943
      48 -> 50         0.65121
      48 -> 51        -0.14089

 Excited State   3:      Singlet-A      6.3701 eV  194.63 nm  f=0.0128  <S**2>=0.000
      47 -> 49         0.30559
      48 -> 51         0.62980

 Excited State   4:      Singlet-A      6.6002 eV  187.85 nm  f=0.0328  <S**2>=0.000
      46 -> 50         0.43144
      46 -> 51        -0.32846
      47 -> 50        -0.37186
      47 -> 51         0.19528
      48 -> 49        -0.12291

 Excited State   5:      Singlet-A      6.8594 eV  180.75 nm  f=0.3655  <S**2>=0.000
      46 -> 49         0.51115
      47 -> 49        -0.39707
      48 -> 50         0.17070
      48 -> 51         0.17936

 Excited State   6:      Singlet-A      6.9123 eV  179.37 nm  f=0.1252  <S**2>=0.000
      45 -> 49         0.18004
      46 -> 50         0.32588
      46 -> 51        -0.24993
      47 -> 50         0.45311
      48 -> 49         0.19463

 Excited State   7:      Singlet-A      7.0985 eV  174.66 nm  f=0.3950  <S**2>=0.000
      46 -> 49         0.45941
      47 -> 49         0.42195
      47 -> 50         0.11545
      48 -> 50        -0.15987
      48 -> 51        -0.18190

 Excited State   8:      Singlet-A      7.1923 eV  172.39 nm  f=0.0019  <S**2>=0.000
      48 -> 52         0.69216

 Excited State   9:      Singlet-A      7.3261 eV  169.24 nm  f=0.0023  <S**2>=0.000
      43 -> 49         0.14240
      45 -> 49         0.58773
      46 -> 50        -0.15941
      47 -> 51         0.29406

 Excited State  10:      Singlet-A      7.4086 eV  167.35 nm  f=0.0478  <S**2>=0.000
      43 -> 49        -0.18381
      45 -> 49        -0.25011
      45 -> 50        -0.10555
      46 -> 50        -0.22555
      46 -> 51        -0.18949
      47 -> 50         0.12815
      47 -> 51         0.49971

 The electronic state is 1-A.
 Alpha  occ. eigenvalues --  -19.20410 -19.19954 -19.17901 -19.13774 -10.36240
 Alpha  occ. eigenvalues --  -10.24881 -10.24710 -10.24580 -10.24287 -10.19537
 Alpha  occ. eigenvalues --  -10.19401 -10.19327 -10.18885  -1.14368  -1.06502
 Alpha  occ. eigenvalues --   -1.06133  -1.02149  -0.85509  -0.77034  -0.75334
 Alpha  occ. eigenvalues --   -0.73294  -0.69656  -0.62925  -0.62020  -0.57198
 Alpha  occ. eigenvalues --   -0.54661  -0.53272  -0.50469  -0.49373  -0.47942
 Alpha  occ. eigenvalues --   -0.46980  -0.45590  -0.44858  -0.43853  -0.43099
 Alpha  occ. eigenvalues --   -0.42892  -0.41205  -0.39035  -0.37800  -0.37116
 Alpha  occ. eigenvalues --   -0.36612  -0.33754  -0.32813  -0.30802  -0.30444
 Alpha  occ. eigenvalues --   -0.28834  -0.25400  -0.21504
 Alpha virt. eigenvalues --   -0.00435   0.00854   0.04437   0.08630   0.10352
 Alpha virt. eigenvalues --    0.10580   0.11856   0.13482   0.14688   0.15232
 Alpha virt. eigenvalues --    0.15415   0.16303   0.16881   0.17016   0.17472

 Mulliken atomic charges:
              1
     1  C   -0.217619
     2  O   -0.442669
     3  C    0.786188
     4  O   -0.466149
     5  O   -0.496122
     6  C    0.348958
     7  C   -0.197900
     8  C   -0.212950
     9  C    0.365481
    10  C   -0.210490
    11  C   -0.164628
    12  O   -0.445968
    13  C   -0.228415
    14  H    0.171725
    15  H    0.174330
    16  H    0.175310
    17  H    0.134561
    18  H    0.125030
    19  H    0.131676
    20  H    0.142747
    21  H    0.179786
    22  H    0.173234
    23  H    0.173883
 Sum of Mulliken atomic charges =  -0.00000

 Dipole moment (field-independent basis, Debye):
    X=              1.2836    Y=             -1.3467    Z=              0.3081  Tot=              1.8858
 Quadrupole moment (field-independent basis, Debye-Ang):
   XX=            -43.4429   YY=            -74.8948   ZZ=            -77.2211
   XY=             -5.0879   XZ=              1.9351   YZ=             -3.8912

 Summary of Natural Population Analysis:

                                       Natural Population
                Natural  -----------------------------------------------
    Atom  No    Charge         Core      Valence    Rydberg      Total
 -----------------------------------------------------------------------
      C    1   -0.31748      1.99942     4.30450    0.01357     6.31748
      O    2   -0.53896      1.99973     6.52792    0.01131     8.53896
      C    3    1.04816      1.99953     2.90089    0.05142     4.95184
      O    4   -0.61999      1.99977     6.59972    0.02050     8.61999
      O    5   -0.50777      1.99967     6.49666    0.01144     8.50777
      C    6    0.35119      1.99867     3.62786    0.02228     5.64881
      C    7   -0.31573      1.99904     4.29620    0.02049     6.31573
      C    8   -0.34069      1.99906     4.32439    0.01725     6.34069
      C    9    0.33231      1.99879     3.64592    0.02298     5.66769
      C   10   -0.31571      1.99907     4.29615    0.02048     6.31571
      C   11   -0.32251      1.99903     4.30511    0.01837     6.32251
      O   12   -0.42363      1.99975     6.41219    0.01169     8.42363
      C   13   -0.32601      1.99942     4.31248    0.01411     6.32601
      H   14    0.22565      0.00000     0.77373    0.00062     0.77435
      H   15    0.21995      0.00000     0.77861    0.00144     0.78005
      H   16    0.22049      0.00000     0.77807    0.00145     0.77951
      H   17    0.24241      0.00000     0.75646    0.00113     0.75759
      H   18    0.23001      0.00000     0.76905    0.00094     0.76999
      H   19    0.24022      0.00000     0.75859    0.00119     0.75978
      H   20    0.24893      0.00000     0.75003    0.00105     0.75107
      H   21    0.23268      0.00000     0.76679    0.00053     0.76732
      H   22    0.21799      0.00000     0.78003    0.00198     0.78201
      H   23    0.21849      0.00000     0.77953    0.00198     0.78151
 =======================================================================
   * Total *   -0.00000     25.99096    69.74086    0.26818    96.00000

 Normal termination of Gaussian 09 at Thu Sep 30 05:52:36 2021.
