 Gaussian 09, Revision A.02,

 -----------------------------------
 #p opt b3lyp/6-31G* scf=(xqc,tight)
 -----------------------------------

 ---------------------
 CCOc1ccc(cc1)C_conf_0
 ---------------------
 Symbolic Z-matrix:
 Charge =  0 Multiplicity = 1

 SCF Done:  E(RB3LYP) =  -425.406390405     A.U. after   14 cycles
 SCF Done:  E(RB3LYP) =  -425.407856264     A.U. after   12 cycles
 SCF Done:  E(RB3LYP) =  -425.407932933     A.U. after   10 cycles
 SCF Done:  E(RB3LYP) =  -425.407938632     A.U. after    8 cycles
 SCF Done:  E(RB3LYP) =  -425.407941152     A.U. after    8 cycles
 SCF Done:  E(RB3LYP) =  -425.407948159     A.U. after   10 cycles
 SCF Done:  E(RB3LYP) =  -425.407958741     A.U. after   10 cycles
 SCF Done:  E(RB3LYP) =  -425.407975488     A.U. after   11 cycles
 SCF Done:  E(RB3LYP) =  -425.407979081     A.U. after   11 cycles
 SCF Done:  E(RB3LYP) =  -425.407995090     A.U. after   10 cycles
 SCF Done:  E(RB3LYP) =  -425.408049399     A.U. after   10 cycles
 SCF Done:  E(RB3LYP) =  -425.408054370     A.U. after   15 cycles
 SCF Done:  E(RB3LYP) =  -425.408054030     A.U. after    9 cycles
 SCF Done:  E(RB3LYP) =  -425.408053031     A.U. after    9 cycles
 SCF Done:  E(RB3LYP) =  -425.408054429     A.U. after   15 cycles
 SCF Done:  E(RB3LYP) =  -425.408054518     A.U. after    6 cycles
 SCF Done:  E(RB3LYP) =  -425.408054661     A.U. after    9 cycles
 SCF Done:  E(RB3LYP) =  -425.408054667     A.U. after    6 cycles
 Optimization completed on the basis of negligible forces.
    -- Stationary point found.
 Normal termination of Gaussian 09 at Thu Sep 30 13:09:30 2021.

 ----------------------------------------------------------------------
 #p freq b3lyp/6-31G* volume NMR pop=NPA density=current Geom=AllCheck
 Guess=Read
 ----------------------------------------------------------------------

 CCOc1ccc(cc1)C_conf_0
 ---------------------
 Redundant internal coordinates taken from checkpoint file:
 C9H12O_4f0e_conf_0.chk
 Charge =  0 Multiplicity = 1

 SCF Done:  E(RB3LYP) =  -425.408054667     A.U. after    1 cycles

  1  C    Isotropic =   173.8690   Anisotropy =    21.5482

  2  C    Isotropic =   128.8169   Anisotropy =    54.9494

  3  O    Isotropic =   216.9466   Anisotropy =    61.4296

  4  C    Isotropic =    40.9107   Anisotropy =   125.1421

  5  C    Isotropic =    86.7822   Anisotropy =   139.8301

  6  C    Isotropic =    66.4273   Anisotropy =   142.4523

  7  C    Isotropic =    67.5414   Anisotropy =   166.7280

  8  C    Isotropic =    66.5918   Anisotropy =   153.0443

  9  C    Isotropic =    78.4179   Anisotropy =   134.0615

 10  C    Isotropic =   168.3202   Anisotropy =    34.3869

 11  H    Isotropic =    31.1462   Anisotropy =     8.9764

 12  H    Isotropic =    30.6584   Anisotropy =     7.6721

 13  H    Isotropic =    30.6586   Anisotropy =     7.6721

 14  H    Isotropic =    28.3802   Anisotropy =     5.4955

 15  H    Isotropic =    28.3809   Anisotropy =     5.4937

 16  H    Isotropic =    25.9648   Anisotropy =     7.7383

 17  H    Isotropic =    25.3260   Anisotropy =     6.5035

 18  H    Isotropic =    25.1525   Anisotropy =     6.5684

 19  H    Isotropic =    25.5104   Anisotropy =     6.2948

 20  H    Isotropic =    30.4939   Anisotropy =     6.9312

 21  H    Isotropic =    29.8397   Anisotropy =     8.1282

 22  H    Isotropic =    29.8399   Anisotropy =     8.1274

  Exact polarizability: 141.468   1.705  97.010   0.005   0.002  52.017
 Approx polarizability: 187.322   0.382 163.143   0.010   0.003  75.985

                     1                      2                      3
                     A                      A                      A
 Frequencies --    32.3151                53.5023               112.8698
 Red. masses --     1.0820                 3.2643                 1.7215
 Frc consts  --     0.0007                 0.0055                 0.0129
 IR Inten    --     0.3404                 1.0788                 1.3189

                     4                      5                      6
                     A                      A                      A
 Frequencies --   148.8447               157.5408               263.8460
 Red. masses --     3.2400                 3.9397                 1.1625
 Frc consts  --     0.0423                 0.0576                 0.0477
 IR Inten    --     0.7129                 0.0272                 0.4324

                     7                      8                      9
                     A                      A                      A
 Frequencies --   317.1767               331.5570               338.9767
 Red. masses --     2.8311                 3.6090                 4.2732
 Frc consts  --     0.1678                 0.2338                 0.2893
 IR Inten    --     0.0408                 1.0341                 3.3466

                    10                     11                     12
                     A                      A                      A
 Frequencies --   425.1590               438.4411               525.7806
 Red. masses --     3.1668                 3.5414                 2.4664
 Frc consts  --     0.3373                 0.4011                 0.4017
 IR Inten    --     0.0353                 0.1479                 6.6855

                    13                     14                     15
                     A                      A                      A
 Frequencies --   549.4420               654.2952               714.9130
 Red. masses --     4.8848                 6.7485                 3.3433
 Frc consts  --     0.8688                 1.7022                 1.0068
 IR Inten    --     3.7347                 0.1664                 0.0572

                    16                     17                     18
                     A                      A                      A
 Frequencies --   752.4260               815.7318               838.6084
 Red. masses --     4.0719                 1.3288                 1.4137
 Frc consts  --     1.3583                 0.5209                 0.5858
 IR Inten    --     8.9633                21.2643                23.0615

                    19                     20                     21
                     A                      A                      A
 Frequencies --   845.2027               847.8751               935.7158
 Red. masses --     4.5284                 1.1214                 1.2839
 Frc consts  --     1.9060                 0.4750                 0.6623
 IR Inten    --     2.9356                 1.5569                 0.1791

                    22                     23                     24
                     A                      A                      A
 Frequencies --   945.9107               958.5183              1017.6591
 Red. masses --     2.4544                 1.2847                 1.4659
 Frc consts  --     1.2939                 0.6954                 0.8944
 IR Inten    --    14.8309                 0.3269                 4.5865

                    25                     26                     27
                     A                      A                      A
 Frequencies --  1035.5018              1076.5309              1079.9466
 Red. masses --     2.4860                 1.4860                 3.5411
 Frc consts  --     1.5705                 1.0147                 2.4333
 IR Inten    --     3.3295                 3.8425                52.4926

                    28                     29                     30
                     A                      A                      A
 Frequencies --  1147.7398              1155.7370              1196.1048
 Red. masses --     1.4202                 1.8675                 1.5054
 Frc consts  --     1.1023                 1.4697                 1.2690
 IR Inten    --     4.3597                28.5407                 4.1393

                    31                     32                     33
                     A                      A                      A
 Frequencies --  1212.8214              1240.7121              1289.6114
 Red. masses --     1.1646                 3.1230                 4.5938
 Frc consts  --     1.0093                 2.8325                 4.5013
 IR Inten    --    25.5709                 0.0967               328.6708

                    34                     35                     36
                     A                      A                      A
 Frequencies --  1313.1625              1347.5846              1358.2679
 Red. masses --     1.1115                 1.5103                 4.4511
 Frc consts  --     1.1292                 1.6159                 4.8382
 IR Inten    --     0.2674                12.9687                24.0872

                    37                     38                     39
                     A                      A                      A
 Frequencies --  1419.9360              1445.3817              1450.1205
 Red. masses --     1.2575                 1.2441                 1.3836
 Frc consts  --     1.4938                 1.5314                 1.7142
 IR Inten    --    16.3415                 0.5017                38.0620

                    40                     41                     42
                     A                      A                      A
 Frequencies --  1463.6936              1515.5001              1516.2782
 Red. masses --     2.7280                 1.0404                 1.0446
 Frc consts  --     3.4434                 1.4079                 1.4150
 IR Inten    --     0.3370                 5.0940                 4.7471

                    43                     44                     45
                     A                      A                      A
 Frequencies --  1527.9654              1530.9480              1549.9930
 Red. masses --     1.1019                 1.0506                 1.2393
 Frc consts  --     1.5158                 1.4509                 1.7543
 IR Inten    --     4.8966                 6.9243                65.9499

                    46                     47                     48
                     A                      A                      A
 Frequencies --  1569.2964              1635.0014              1678.6620
 Red. masses --     2.0156                 5.9295                 5.7880
 Frc consts  --     2.9246                 9.3391                 9.6097
 IR Inten    --    75.2537                19.5717                39.4237

                    49                     50                     51
                     A                      A                      A
 Frequencies --  3010.5081              3038.3380              3046.4559
 Red. masses --     1.0553                 1.0377                 1.1087
 Frc consts  --     5.6350                 5.6439                 6.0627
 IR Inten    --    33.6606                44.8309                40.8502

                    52                     53                     54
                     A                      A                      A
 Frequencies --  3062.5670              3087.3986              3119.4999
 Red. masses --     1.0352                 1.1010                 1.1003
 Frc consts  --     5.7208                 6.1834                 6.3086
 IR Inten    --    20.3887                25.0096                18.8108

                    55                     56                     57
                     A                      A                      A
 Frequencies --  3133.9577              3140.4540              3175.1561
 Red. masses --     1.1024                 1.1041                 1.0887
 Frc consts  --     6.3792                 6.4155                 6.4669
 IR Inten    --    25.1450                28.7746                19.4695

                    58                     59                     60
                     A                      A                      A
 Frequencies --  3178.9022              3211.7233              3225.7203
 Red. masses --     1.0889                 1.0929                 1.0910
 Frc consts  --     6.4832                 6.6421                 6.6883
 IR Inten    --    22.0627                 9.1714                13.0511

 - Thermochemistry -
 -------------------
 Temperature   298.150 Kelvin.  Pressure   1.00000 Atm.
 Atom     1 has atomic number  6 and mass  12.00000

 Molecular mass:   136.08882 amu.
 Principal axes and moments of inertia in atomic units:
                           1         2         3
     Eigenvalues --   386.575082857.237033209.92301
           X            0.99999   0.00338  -0.00000
           Y           -0.00338   0.99999   0.00001
           Z            0.00000  -0.00001   1.00000
 This molecule is an asymmetric top.
 Rotational symmetry number  1.
 Rotational temperatures (Kelvin)      0.22405     0.03031     0.02698
 Rotational constants (GHZ):           4.66854     0.63164     0.56224
 Zero-point vibrational energy     497703.2 (Joules/Mol)
                                  118.95393 (Kcal/Mol)
 Warning -- explicit consideration of  13 degrees of freedom as
           vibrations may cause significant error
 Vibrational temperatures:     46.49    76.98   162.39   214.15   226.67
          (Kelvin)            379.62   456.35   477.04   487.71   611.71
                              630.82   756.48   790.52   941.38  1028.60
                             1082.57  1173.65  1206.57  1216.06  1219.90
                             1346.28  1360.95  1379.09  1464.18  1489.85
                             1548.89  1553.80  1651.34  1662.85  1720.93
                             1744.98  1785.11  1855.46  1889.35  1938.87
                             1954.24  2042.97  2079.58  2086.40  2105.93
                             2180.46  2181.58  2198.40  2202.69  2230.09
                             2257.86  2352.40  2415.22  4331.44  4371.49
                             4383.17  4406.35  4442.07  4488.26  4509.06
                             4518.41  4568.34  4573.73  4620.95  4641.09

 Zero-point correction=                           0.189565 (Hartree/Particle)
 Thermal correction to Energy=                    0.199708
 Thermal correction to Enthalpy=                  0.200652
 Thermal correction to Gibbs Free Energy=         0.153073
 Sum of electronic and zero-point Energies=           -425.218490
 Sum of electronic and thermal Energies=              -425.208347
 Sum of electronic and thermal Enthalpies=            -425.207403
 Sum of electronic and thermal Free Energies=         -425.254982

                     E (Thermal)             CV                S
                      KCal/Mol        Cal/Mol-Kelvin    Cal/Mol-Kelvin
 Total                  125.319             37.273            100.139
 Electronic               0.000              0.000              0.000
 Translational            0.889              2.981             40.637
 Rotational               0.889              2.981             29.651
 Vibrational            123.541             31.311             29.851
 Vibration     1          0.594              1.983              5.682
 Vibration     2          0.596              1.976              4.684
 Vibration     3          0.607              1.939              3.219
 Vibration     4          0.618              1.904              2.687
 Vibration     5          0.621              1.894              2.579
 Vibration     6          0.670              1.739              1.636
 Vibration     7          0.704              1.641              1.325
 Vibration     8          0.714              1.612              1.252
 Vibration     9          0.719              1.598              1.217
 Vibration    10          0.787              1.416              0.875
 Vibration    11          0.799              1.386              0.832
 Vibration    12          0.881              1.193              0.597
 Vibration    13          0.905              1.141              0.545

 Optimization completed.
    -- Stationary point found.
 Normal termination of Gaussian 09 at Thu Sep 30 13:40:22 2021.
 Gaussian 09:  AM64L-G09RevA.02 11-Jun-2009

 ----------------------------------------------------------------------
 #p TD(NStates=10, Root=1) b3lyp/6-31G* volume pop=NPA density=current
 Geom=AllCheck Guess=Read
 ----------------------------------------------------------------------

 CCOc1ccc(cc1)C_conf_0
 ---------------------
 Redundant internal coordinates taken from checkpoint file:
 C9H12O_4f0e_conf_0.chk
 Charge =  0 Multiplicity = 1

                         Standard orientation:
 ---------------------------------------------------------------------
 Center     Atomic      Atomic             Coordinates (Angstroms)
 Number     Number       Type             X           Y           Z
 ---------------------------------------------------------------------
      1          6           0       -4.112894    0.026072    0.000349
      2          6           0       -2.711591   -0.560377    0.000052
      3          8           0       -1.790352    0.527064   -0.000354
      4          6           0       -0.451280    0.251135   -0.000203
      5          6           0        0.101939   -1.032384   -0.000210
      6          6           0        1.493391   -1.184802   -0.000079
      7          6           0        2.357116   -0.088873    0.000050
      8          6           0        1.778245    1.191921    0.000040
      9          6           0        0.401239    1.366035   -0.000078
     10          6           0        3.858412   -0.262169    0.000230
     11          1           0       -4.858233   -0.776656    0.000583
     12          1           0       -4.270599    0.647147   -0.887005
     13          1           0       -4.270176    0.647283    0.887682
     14          1           0       -2.549974   -1.188573   -0.888177
     15          1           0       -2.549469   -1.188326    0.888360
     16          1           0       -0.528535   -1.914212   -0.000336
     17          1           0        1.907589   -2.190821   -0.000088
     18          1           0        2.421412    2.069739    0.000132
     19          1           0       -0.042179    2.357190   -0.000080
     20          1           0        4.137153   -1.321005   -0.000181
     21          1           0        4.319038    0.200805    0.882362
     22          1           0        4.319334    0.201580   -0.881335
 ---------------------------------------------------------------------

 SCF Done:  E(RB3LYP) =  -425.408054667     A.U. after    1 cycles

 Excitation energies and oscillator strengths:

 Excited State   1:      Singlet-A      5.0722 eV  244.44 nm  f=0.0301  <S**2>=0.000
      36 -> 39         0.30099
      37 -> 38         0.63959
 This state for optimization and/or second-order correction.
 Total Energy, E(TD-HF/TD-KS) =  -425.221654267
 Copying the excited state density for this state as the 1-particle RhoCI density.

 Excited State   2:      Singlet-A      5.8630 eV  211.47 nm  f=0.1831  <S**2>=0.000
      36 -> 38        -0.30582
      37 -> 39         0.63384

 Excited State   3:      Singlet-A      6.9148 eV  179.30 nm  f=0.2588  <S**2>=0.000
      35 -> 38        -0.25789
      36 -> 38        -0.23394
      36 -> 39         0.54299
      37 -> 38        -0.25093
      37 -> 39        -0.10475

 Excited State   4:      Singlet-A      6.9636 eV  178.05 nm  f=0.7190  <S**2>=0.000
      36 -> 38         0.58141
      36 -> 39         0.22439
      37 -> 38        -0.11220
      37 -> 39         0.27625

 Excited State   5:      Singlet-A      7.2628 eV  170.71 nm  f=0.0005  <S**2>=0.000
      37 -> 40         0.67945
      37 -> 41        -0.17521

 Excited State   6:      Singlet-A      7.5800 eV  163.57 nm  f=0.0080  <S**2>=0.000
      34 -> 38        -0.15082
      37 -> 40         0.17276
      37 -> 41         0.66001

 Excited State   7:      Singlet-A      7.6060 eV  163.01 nm  f=0.0001  <S**2>=0.000
      33 -> 38        -0.12236
      34 -> 38         0.67131
      37 -> 41         0.14958

 Excited State   8:      Singlet-A      7.7950 eV  159.06 nm  f=0.1335  <S**2>=0.000
      35 -> 38         0.64874
      36 -> 39         0.23864
      37 -> 38        -0.11353

 Excited State   9:      Singlet-A      7.9170 eV  156.60 nm  f=0.0000  <S**2>=0.000
      33 -> 39        -0.10551
      34 -> 39         0.68723

 Excited State  10:      Singlet-A      8.1613 eV  151.92 nm  f=0.0382  <S**2>=0.000
      35 -> 39         0.68503

 The electronic state is 1-A.
 Alpha  occ. eigenvalues --  -19.16871 -10.24076 -10.23829 -10.18410 -10.18241
 Alpha  occ. eigenvalues --  -10.18179 -10.18087 -10.18027 -10.17777 -10.17739
 Alpha  occ. eigenvalues --   -1.05520  -0.84491  -0.77861  -0.74452  -0.73663
 Alpha  occ. eigenvalues --   -0.67247  -0.63395  -0.59525  -0.56984  -0.53025
 Alpha  occ. eigenvalues --   -0.48043  -0.46927  -0.45979  -0.43341  -0.41297
 Alpha  occ. eigenvalues --   -0.41209  -0.40343  -0.39157  -0.39124  -0.37365
 Alpha  occ. eigenvalues --   -0.35080  -0.34990  -0.34312  -0.31694  -0.30261
 Alpha  occ. eigenvalues --   -0.24267  -0.20671
 Alpha virt. eigenvalues --    0.00644   0.02094   0.09749   0.10104   0.12549
 Alpha virt. eigenvalues --    0.13233   0.14439   0.15053   0.15251   0.15532
 Alpha virt. eigenvalues --    0.17155   0.17921   0.19126   0.19283   0.20864

 Mulliken atomic charges:
              1
     1  C   -0.460233
     2  C   -0.042646
     3  O   -0.458881
     4  C    0.356589
     5  C   -0.199593
     6  C   -0.219414
     7  C    0.201923
     8  C   -0.212224
     9  C   -0.190029
    10  C   -0.533318
    11  H    0.153751
    12  H    0.167638
    13  H    0.167637
    14  H    0.159880
    15  H    0.159884
    16  H    0.119157
    17  H    0.111781
    18  H    0.108414
    19  H    0.121774
    20  H    0.155726
    21  H    0.166099
    22  H    0.166085
 Sum of Mulliken atomic charges =  -0.00000

 Dipole moment (field-independent basis, Debye):
    X=             -1.6773    Y=             -1.2484    Z=              0.0006  Tot=              2.0909
 Quadrupole moment (field-independent basis, Debye-Ang):
   XX=            -48.9464   YY=            -58.7249   ZZ=            -62.6710
   XY=              2.5972   XZ=              0.0000   YZ=              0.0005

 Summary of Natural Population Analysis:

                                       Natural Population
                Natural  -----------------------------------------------
    Atom  No    Charge         Core      Valence    Rydberg      Total
 -----------------------------------------------------------------------
      C    1   -0.69768      1.99945     4.68995    0.00828     6.69768
      C    2   -0.11482      1.99928     4.10040    0.01515     6.11482
      O    3   -0.44018      1.99974     6.42810    0.01234     8.44018
      C    4    0.33342      1.99879     3.64485    0.02294     5.66658
      C    5   -0.34332      1.99905     4.32673    0.01754     6.34332
      C    6   -0.27513      1.99907     4.25735    0.01872     6.27513
      C    7    0.04028      1.99904     3.94510    0.01557     5.95972
      C    8   -0.29982      1.99907     4.28207    0.01868     6.29982
      C    9   -0.31005      1.99907     4.29045    0.02053     6.31005
      C   10   -0.69456      1.99939     4.68755    0.00762     6.69456
      H   11    0.23961      0.00000     0.75972    0.00067     0.76039
      H   12    0.24006      0.00000     0.75863    0.00131     0.75994
      H   13    0.24006      0.00000     0.75863    0.00131     0.75994
      H   14    0.22164      0.00000     0.77580    0.00257     0.77836
      H   15    0.22164      0.00000     0.77579    0.00257     0.77836
      H   16    0.22599      0.00000     0.77304    0.00097     0.77401
      H   17    0.22411      0.00000     0.77482    0.00108     0.77589
      H   18    0.22418      0.00000     0.77481    0.00101     0.77582
      H   19    0.23445      0.00000     0.76427    0.00128     0.76555
      H   20    0.23661      0.00000     0.76248    0.00091     0.76339
      H   21    0.24676      0.00000     0.75140    0.00184     0.75324
      H   22    0.24675      0.00000     0.75141    0.00184     0.75325
 =======================================================================
   * Total *   -0.00000     19.99195    53.83335    0.17470    74.00000

 Normal termination of Gaussian 09 at Thu Sep 30 16:37:27 2021.
