 Gaussian 09, Revision A.02,

 -----------------------------------
 #p opt b3lyp/6-31G* scf=(xqc,tight)
 -----------------------------------

 ------------------------
 COc1cccc(c1)N(C)C_conf_0
 ------------------------
 Symbolic Z-matrix:
 Charge =  0 Multiplicity = 1

 SCF Done:  E(RB3LYP) =  -480.734639174     A.U. after   14 cycles
 SCF Done:  E(RB3LYP) =  -480.737614906     A.U. after   12 cycles
 SCF Done:  E(RB3LYP) =  -480.737964810     A.U. after   11 cycles
 SCF Done:  E(RB3LYP) =  -480.738090149     A.U. after   11 cycles
 SCF Done:  E(RB3LYP) =  -480.738156527     A.U. after   11 cycles
 SCF Done:  E(RB3LYP) =  -480.738197924     A.U. after   10 cycles
 SCF Done:  E(RB3LYP) =  -480.738222396     A.U. after   10 cycles
 SCF Done:  E(RB3LYP) =  -480.738229935     A.U. after   10 cycles
 SCF Done:  E(RB3LYP) =  -480.738233559     A.U. after    9 cycles
 SCF Done:  E(RB3LYP) =  -480.738234059     A.U. after    7 cycles
 SCF Done:  E(RB3LYP) =  -480.738234370     A.U. after    7 cycles
 SCF Done:  E(RB3LYP) =  -480.738234754     A.U. after    7 cycles
 SCF Done:  E(RB3LYP) =  -480.738234913     A.U. after    7 cycles
 SCF Done:  E(RB3LYP) =  -480.738234937     A.U. after    7 cycles
 Optimization completed.
    -- Stationary point found.
 Normal termination of Gaussian 09 at Tue Sep 28 20:48:33 2021.

 ----------------------------------------------------------------------
 #p freq b3lyp/6-31G* volume NMR pop=NPA density=current Geom=AllCheck
 Guess=Read
 ----------------------------------------------------------------------

 COc1cccc(c1)N(C)C_conf_0
 ------------------------
 Redundant internal coordinates taken from checkpoint file:
 C9H13NO_9cce_conf_0.chk
 Charge =  0 Multiplicity = 1

 SCF Done:  E(RB3LYP) =  -480.738234937     A.U. after    1 cycles

  1  C    Isotropic =   137.5332   Anisotropy =    65.5610

  2  O    Isotropic =   239.2143   Anisotropy =    69.3164

  3  C    Isotropic =    38.1757   Anisotropy =   123.6973

  4  C    Isotropic =    97.0755   Anisotropy =   128.5216

  5  C    Isotropic =    66.9379   Anisotropy =   161.5062

  6  C    Isotropic =    90.4729   Anisotropy =   130.9508

  7  C    Isotropic =    49.1729   Anisotropy =   147.8861

  8  C    Isotropic =    94.7164   Anisotropy =   109.1716

  9  N    Isotropic =   204.0437   Anisotropy =    83.2235

 10  C    Isotropic =   149.8953   Anisotropy =    52.0007

 11  C    Isotropic =   149.8255   Anisotropy =    52.7554

 12  H    Isotropic =    28.4025   Anisotropy =     8.2167

 13  H    Isotropic =    28.6702   Anisotropy =     8.2776

 14  H    Isotropic =    28.6863   Anisotropy =     8.2294

 15  H    Isotropic =    26.3989   Anisotropy =     6.2587

 16  H    Isotropic =    25.2703   Anisotropy =     4.7613

 17  H    Isotropic =    26.2051   Anisotropy =     8.0916

 18  H    Isotropic =    26.4237   Anisotropy =     9.9992

 19  H    Isotropic =    29.0199   Anisotropy =     8.6672

 20  H    Isotropic =    29.3432   Anisotropy =     8.7896

 21  H    Isotropic =    29.7586   Anisotropy =     7.9013

 22  H    Isotropic =    28.9803   Anisotropy =     9.0056

 23  H    Isotropic =    29.7541   Anisotropy =     7.9538

 24  H    Isotropic =    29.3569   Anisotropy =     9.0892

  Exact polarizability: 152.838  -2.442 111.049   0.164   0.249  55.351
 Approx polarizability: 211.495  -2.315 177.740  -1.953   1.328  81.344

                     1                      2                      3
                     A                      A                      A
 Frequencies --    56.9986                80.1124               106.9865
 Red. masses --     2.7896                 2.9812                 2.6241
 Frc consts  --     0.0053                 0.0113                 0.0177
 IR Inten    --     1.2496                 7.0030                 5.6237

                     4                      5                      6
                     A                      A                      A
 Frequencies --   155.3448               168.6641               208.3155
 Red. masses --     1.4045                 2.0696                 1.7633
 Frc consts  --     0.0200                 0.0347                 0.0451
 IR Inten    --     0.4344                 0.7233                 0.7812

                     7                      8                      9
                     A                      A                      A
 Frequencies --   228.8084               275.8574               284.6355
 Red. masses --     1.3916                 2.1481                 2.1818
 Frc consts  --     0.0429                 0.0963                 0.1041
 IR Inten    --     1.1878                 2.4148                 1.9464

                    10                     11                     12
                     A                      A                      A
 Frequencies --   307.7420               366.4625               428.6377
 Red. masses --     2.5187                 3.2050                 3.4163
 Frc consts  --     0.1405                 0.2536                 0.3698
 IR Inten    --     1.5385                 0.9183                 0.7661

                    13                     14                     15
                     A                      A                      A
 Frequencies --   468.1001               519.8481               558.8722
 Red. masses --     3.0950                 4.5361                 3.2611
 Frc consts  --     0.3996                 0.7222                 0.6001
 IR Inten    --     1.8912                 1.1879                 1.4490

                    16                     17                     18
                     A                      A                      A
 Frequencies --   586.7421               638.5783               697.8287
 Red. masses --     4.5131                 4.2712                 2.0358
 Frc consts  --     0.9154                 1.0262                 0.5841
 IR Inten    --     9.2696                 0.8992                 6.5487

                    19                     20                     21
                     A                      A                      A
 Frequencies --   723.0113               758.5736               826.0630
 Red. masses --     5.7521                 1.4085                 1.5272
 Frc consts  --     1.7716                 0.4775                 0.6140
 IR Inten    --     3.7110                37.1389                 4.2963

                    22                     23                     24
                     A                      A                      A
 Frequencies --   843.6916               878.2539               948.7619
 Red. masses --     1.6422                 4.8329                 1.2397
 Frc consts  --     0.6887                 2.1963                 0.6575
 IR Inten    --    34.8764                 6.1356                 0.0700

                    25                     26                     27
                     A                      A                      A
 Frequencies --   990.7865              1015.0855              1090.3439
 Red. masses --     3.4153                 4.1832                 1.5595
 Frc consts  --     1.9753                 2.5396                 1.0923
 IR Inten    --     2.6192                16.4792                29.2187

                    28                     29                     30
                     A                      A                      A
 Frequencies --  1100.1871              1133.3910              1152.1355
 Red. masses --     3.2291                 1.7158                 1.2352
 Frc consts  --     2.3029                 1.2986                 0.9660
 IR Inten    --    53.4242                 3.4798                 2.8767

                    31                     32                     33
                     A                      A                      A
 Frequencies --  1156.2004              1185.3548              1191.4515
 Red. masses --     1.3615                 1.2704                 1.5916
 Frc consts  --     1.0723                 1.0517                 1.3312
 IR Inten    --    56.0882                 0.7632                89.4455

                    34                     35                     36
                     A                      A                      A
 Frequencies --  1214.4796              1222.4169              1268.5536
 Red. masses --     1.1480                 1.3755                 2.4762
 Frc consts  --     0.9976                 1.2110                 2.3477
 IR Inten    --    19.8881                 6.3234                57.2056

                    37                     38                     39
                     A                      A                      A
 Frequencies --  1299.3837              1353.7373              1377.3521
 Red. masses --     3.6070                 1.6989                 5.2566
 Frc consts  --     3.5882                 1.8344                 5.8755
 IR Inten    --   223.9501                 0.5198                50.3883

                    40                     41                     42
                     A                      A                      A
 Frequencies --  1394.7274              1471.0664              1494.8450
 Red. masses --     3.1377                 1.1873                 1.4285
 Frc consts  --     3.5962                 1.5138                 1.8807
 IR Inten    --    57.0960                 4.8177                20.9405

                    43                     44                     45
                     A                      A                      A
 Frequencies --  1500.7589              1511.5046              1517.2631
 Red. masses --     1.5268                 1.0513                 1.1260
 Frc consts  --     2.0261                 1.4151                 1.5273
 IR Inten    --    28.8514                 3.7213                 4.7879

                    46                     47                     48
                     A                      A                      A
 Frequencies --  1520.0520              1521.4972              1537.4646
 Red. masses --     1.0502                 1.3936                 1.0626
 Frc consts  --     1.4297                 1.9008                 1.4798
 IR Inten    --     4.4863                26.9603                25.8516

                    49                     50                     51
                     A                      A                      A
 Frequencies --  1545.0850              1554.9171              1561.2163
 Red. masses --     1.1482                 1.8596                 1.1625
 Frc consts  --     1.6150                 2.6490                 1.6695
 IR Inten    --     3.2829                47.0148               113.1858

                    52                     53                     54
                     A                      A                      A
 Frequencies --  1630.6484              1673.0297              2989.4663
 Red. masses --     5.2698                 5.8007                 1.0524
 Frc consts  --     8.2559                 9.5662                 5.5416
 IR Inten    --    93.4002               276.6198                73.7233

                    55                     56                     57
                     A                      A                      A
 Frequencies --  2998.0142              3022.4277              3074.0840
 Red. masses --     1.0569                 1.0346                 1.0853
 Frc consts  --     5.5970                 5.5686                 6.0425
 IR Inten    --    89.1253                60.5013                24.6191

                    58                     59                     60
                     A                      A                      A
 Frequencies --  3076.2531              3079.3755              3134.8735
 Red. masses --     1.0858                 1.1065                 1.0991
 Frc consts  --     6.0543                 6.1817                 6.3642
 IR Inten    --    48.0624                49.3205                 3.3435

                    61                     62                     63
                     A                      A                      A
 Frequencies --  3146.8495              3150.6276              3183.6244
 Red. masses --     1.0961                 1.0996                 1.0885
 Frc consts  --     6.3955                 6.4313                 6.4999
 IR Inten    --    48.6075                30.1623                18.2860

                    64                     65                     66
                     A                      A                      A
 Frequencies --  3232.5245              3237.2582              3244.1813
 Red. masses --     1.0903                 1.0917                 1.0889
 Frc consts  --     6.7124                 6.7405                 6.7522
 IR Inten    --    16.0112                 9.2684                 4.3380

 - Thermochemistry -
 -------------------
 Temperature   298.150 Kelvin.  Pressure   1.00000 Atm.
 Atom     1 has atomic number  6 and mass  12.00000

 Molecular mass:   151.09971 amu.
 Principal axes and moments of inertia in atomic units:
                           1         2         3
     Eigenvalues --   776.826892717.098623455.01297
           X            0.99996  -0.00861   0.00171
           Y            0.00861   0.99996  -0.00037
           Z           -0.00171   0.00038   1.00000
 This molecule is an asymmetric top.
 Rotational symmetry number  1.
 Warning -- assumption of classical behavior for rotation
           may cause significant error
 Rotational temperatures (Kelvin)      0.11150     0.03188     0.02507
 Rotational constants (GHZ):           2.32322     0.66422     0.52235
 Zero-point vibrational energy     543531.6 (Joules/Mol)
                                  129.90717 (Kcal/Mol)
 Warning -- explicit consideration of  16 degrees of freedom as
           vibrations may cause significant error
 Vibrational temperatures:     82.01   115.26   153.93   223.51   242.67
          (Kelvin)            299.72   329.20   396.90   409.53   442.77
                              527.26   616.71   673.49   747.94   804.09
                              844.19   918.77  1004.02  1040.25  1091.42
                             1188.52  1213.88  1263.61  1365.05  1425.52
                             1460.48  1568.76  1582.92  1630.69  1657.66
                             1663.51  1705.46  1714.23  1747.36  1758.78
                             1825.16  1869.52  1947.72  1981.70  2006.70
                             2116.53  2150.75  2159.25  2174.72  2183.00
                             2187.01  2189.09  2212.07  2223.03  2237.18
                             2246.24  2346.14  2407.11  4301.17  4313.47
                             4348.59  4422.92  4426.04  4430.53  4510.38
                             4527.61  4533.04  4580.52  4650.88  4657.69
                             4667.65

 Zero-point correction=                           0.207020 (Hartree/Particle)
 Thermal correction to Energy=                    0.218261
 Thermal correction to Enthalpy=                  0.219206
 Thermal correction to Gibbs Free Energy=         0.169998
 Sum of electronic and zero-point Energies=           -480.531215
 Sum of electronic and thermal Energies=              -480.519974
 Sum of electronic and thermal Enthalpies=            -480.519029
 Sum of electronic and thermal Free Energies=         -480.568237

                     E (Thermal)             CV                S
                      KCal/Mol        Cal/Mol-Kelvin    Cal/Mol-Kelvin
 Total                  136.961             41.799            103.567
 Electronic               0.000              0.000              0.000
 Translational            0.889              2.981             40.948
 Rotational               0.889              2.981             30.368
 Vibrational            135.184             35.838             32.250
 Vibration     1          0.596              1.975              4.559
 Vibration     2          0.600              1.963              3.888
 Vibration     3          0.606              1.944              3.323
 Vibration     4          0.620              1.897              2.606
 Vibration     5          0.625              1.881              2.450
 Vibration     6          0.642              1.828              2.058
 Vibration     7          0.651              1.797              1.888
 Vibration     8          0.678              1.718              1.559
 Vibration     9          0.683              1.702              1.506
 Vibration    10          0.698              1.659              1.374
 Vibration    11          0.739              1.541              1.095
 Vibration    12          0.790              1.408              0.863
 Vibration    13          0.825              1.321              0.743
 Vibration    14          0.875              1.206              0.610
 Vibration    15          0.914              1.120              0.526
 Vibration    16          0.944              1.060              0.473

 Optimization completed.
    -- Stationary point found.
 Normal termination of Gaussian 09 at Tue Sep 28 21:18:08 2021.
 Gaussian 09:  AM64L-G09RevA.02 11-Jun-2009

 ----------------------------------------------------------------------
 #p TD(NStates=10, Root=1) b3lyp/6-31G* volume pop=NPA density=current
 Geom=AllCheck Guess=Read
 ----------------------------------------------------------------------

 COc1cccc(c1)N(C)C_conf_0
 ------------------------
 Redundant internal coordinates taken from checkpoint file:
 C9H13NO_9cce_conf_0.chk
 Charge =  0 Multiplicity = 1

                         Standard orientation:
 ---------------------------------------------------------------------
 Center     Atomic      Atomic             Coordinates (Angstroms)
 Number     Number       Type             X           Y           Z
 ---------------------------------------------------------------------
      1          6           0       -3.795736   -0.648653    0.044847
      2          8           0       -2.455927   -1.106307   -0.000172
      3          6           0       -1.455343   -0.170810   -0.013838
      4          6           0       -1.666975    1.211168    0.013169
      5          6           0       -0.544203    2.043218    0.004058
      6          6           0        0.749297    1.539679   -0.034826
      7          6           0        0.967088    0.140378   -0.075189
      8          6           0       -0.161019   -0.699662   -0.051266
      9          7           0        2.253919   -0.388208   -0.147642
     10          6           0        2.440605   -1.816051    0.040884
     11          6           0        3.390779    0.481519    0.100724
     12          1           0       -4.419531   -1.544977    0.049269
     13          1           0       -4.046128   -0.038475   -0.833508
     14          1           0       -3.995180   -0.064901    0.953688
     15          1           0       -2.662414    1.636684    0.045905
     16          1           0       -0.686726    3.120849    0.032001
     17          1           0        1.583037    2.230471   -0.034484
     18          1           0       -0.071814   -1.778236   -0.060472
     19          1           0        1.890319   -2.384327   -0.717937
     20          1           0        2.110897   -2.167513    1.032646
     21          1           0        3.499929   -2.056233   -0.073490
     22          1           0        3.428862    1.296843   -0.631064
     23          1           0        4.311189   -0.096446   -0.007118
     24          1           0        3.380590    0.929461    1.108053
 ---------------------------------------------------------------------

 SCF Done:  E(RB3LYP) =  -480.738234937     A.U. after    1 cycles

 Excitation energies and oscillator strengths:

 Excited State   1:      Singlet-A      4.7615 eV  260.39 nm  f=0.0400  <S**2>=0.000
      40 -> 43         0.25074
      41 -> 42         0.63296
      41 -> 43         0.15590
 This state for optimization and/or second-order correction.
 Total Energy, E(TD-HF/TD-KS) =  -480.563254384
 Copying the excited state density for this state as the 1-particle RhoCI density.

 Excited State   2:      Singlet-A      5.4715 eV  226.60 nm  f=0.1139  <S**2>=0.000
      40 -> 42        -0.39725
      41 -> 42        -0.20350
      41 -> 43         0.54232

 Excited State   3:      Singlet-A      5.9535 eV  208.25 nm  f=0.2609  <S**2>=0.000
      39 -> 42        -0.19857
      39 -> 43        -0.13406
      40 -> 42         0.49456
      40 -> 43        -0.17330
      41 -> 43         0.40199

 Excited State   4:      Singlet-A      6.3321 eV  195.80 nm  f=0.5820  <S**2>=0.000
      39 -> 42         0.15906
      40 -> 42         0.23511
      40 -> 43         0.59805
      41 -> 42        -0.20163

 Excited State   5:      Singlet-A      6.5071 eV  190.54 nm  f=0.0073  <S**2>=0.000
      41 -> 44         0.70213

 Excited State   6:      Singlet-A      7.0488 eV  175.89 nm  f=0.0010  <S**2>=0.000
      40 -> 44        -0.16040
      41 -> 45         0.50016
      41 -> 46        -0.46220

 Excited State   7:      Singlet-A      7.2122 eV  171.91 nm  f=0.0164  <S**2>=0.000
      40 -> 44        -0.33138
      40 -> 45        -0.10187
      41 -> 45         0.29996
      41 -> 46         0.46165
      41 -> 47        -0.24681

 Excited State   8:      Singlet-A      7.3003 eV  169.83 nm  f=0.0025  <S**2>=0.000
      40 -> 44         0.56671
      41 -> 45         0.32606
      41 -> 46         0.16014
      41 -> 47        -0.13238

 Excited State   9:      Singlet-A      7.4496 eV  166.43 nm  f=0.2582  <S**2>=0.000
      39 -> 42         0.59890
      39 -> 43         0.18821
      40 -> 42         0.13062
      40 -> 43        -0.18087
      41 -> 47        -0.10691

 Excited State  10:      Singlet-A      7.4869 eV  165.60 nm  f=0.0103  <S**2>=0.000
      39 -> 42         0.12182
      41 -> 45         0.19396
      41 -> 46         0.18258
      41 -> 47         0.62566

 The electronic state is 1-A.
 Alpha  occ. eigenvalues --  -19.16543 -14.34492 -10.23326 -10.23219 -10.21755
 Alpha  occ. eigenvalues --  -10.21244 -10.21138 -10.17819 -10.16611 -10.16603
 Alpha  occ. eigenvalues --  -10.16404  -1.05089  -0.93800  -0.82760  -0.74548
 Alpha  occ. eigenvalues --   -0.73481  -0.71942  -0.68036  -0.65187  -0.58770
 Alpha  occ. eigenvalues --   -0.56388  -0.52667  -0.48428  -0.47476  -0.46911
 Alpha  occ. eigenvalues --   -0.45922  -0.45574  -0.44093  -0.41940  -0.40382
 Alpha  occ. eigenvalues --   -0.39802  -0.38929  -0.37964  -0.36443  -0.35770
 Alpha  occ. eigenvalues --   -0.34621  -0.31576  -0.31345  -0.26802  -0.20859
 Alpha  occ. eigenvalues --   -0.18300
 Alpha virt. eigenvalues --    0.01886   0.03498   0.08979   0.10906   0.11469
 Alpha virt. eigenvalues --    0.12279   0.13202   0.14608   0.15782   0.16647
 Alpha virt. eigenvalues --    0.17001   0.17217   0.17569   0.18025   0.19143

 Mulliken atomic charges:
              1
     1  C   -0.204112
     2  O   -0.506533
     3  C    0.335851
     4  C   -0.168192
     5  C   -0.200366
     6  C   -0.196121
     7  C    0.338878
     8  C   -0.283091
     9  N   -0.414093
    10  C   -0.319779
    11  C   -0.320297
    12  H    0.157709
    13  H    0.142033
    14  H    0.141603
    15  H    0.121382
    16  H    0.099218
    17  H    0.099564
    18  H    0.105976
    19  H    0.192873
    20  H    0.184099
    21  H    0.161805
    22  H    0.188517
    23  H    0.161860
    24  H    0.181216
 Sum of Mulliken atomic charges =  -0.00000

 Dipole moment (field-independent basis, Debye):
    X=              3.1384    Y=             -1.0871    Z=              0.3366  Tot=              3.3383
 Quadrupole moment (field-independent basis, Debye-Ang):
   XX=            -45.7835   YY=            -64.8244   ZZ=            -69.5750
   XY=             -3.2933   XZ=              0.4190   YZ=             -0.0001

 Summary of Natural Population Analysis:

                                       Natural Population
                Natural  -----------------------------------------------
    Atom  No    Charge         Core      Valence    Rydberg      Total
 -----------------------------------------------------------------------
      C    1   -0.31302      1.99944     4.29953    0.01406     6.31302
      O    2   -0.51511      1.99975     6.50357    0.01178     8.51511
      C    3    0.25703      1.99881     3.71906    0.02510     5.74297
      C    4   -0.24714      1.99903     4.23430    0.01380     6.24714
      C    5   -0.33257      1.99915     4.31173    0.02169     6.33257
      C    6   -0.30534      1.99908     4.28887    0.01740     6.30534
      C    7    0.13687      1.99904     3.84328    0.02081     5.86313
      C    8   -0.38530      1.99903     4.36697    0.01930     6.38530
      N    9   -0.28259      1.99933     5.27252    0.01073     7.28259
      C   10   -0.48031      1.99945     4.46862    0.01224     6.48031
      C   11   -0.47948      1.99945     4.46790    0.01213     6.47948
      H   12    0.22118      0.00000     0.77823    0.00059     0.77882
      H   13    0.19592      0.00000     0.80096    0.00312     0.80408
      H   14    0.19570      0.00000     0.80119    0.00311     0.80430
      H   15    0.22797      0.00000     0.77110    0.00094     0.77203
      H   16    0.22176      0.00000     0.77743    0.00081     0.77824
      H   17    0.21671      0.00000     0.78225    0.00104     0.78329
      H   18    0.22685      0.00000     0.77156    0.00159     0.77315
      H   19    0.24944      0.00000     0.74886    0.00169     0.75056
      H   20    0.24052      0.00000     0.75718    0.00230     0.75948
      H   21    0.23334      0.00000     0.76596    0.00070     0.76666
      H   22    0.24568      0.00000     0.75210    0.00223     0.75432
      H   23    0.23352      0.00000     0.76574    0.00074     0.76648
      H   24    0.23837      0.00000     0.75869    0.00294     0.76163
 =======================================================================
   * Total *   -0.00000     21.99157    59.80761    0.20083    82.00000

 Normal termination of Gaussian 09 at Tue Sep 28 23:52:23 2021.
