 Gaussian 09, Revision A.02,

 -----------------------------------
 #p opt b3lyp/6-31G* scf=(xqc,tight)
 -----------------------------------

 ------------------------
 Cc1ccc(cc1)C(=O)C_conf_0
 ------------------------
 Symbolic Z-matrix:
 Charge =  0 Multiplicity = 1

 SCF Done:  E(RB3LYP) =  -424.211453202     A.U. after   15 cycles
 SCF Done:  E(RB3LYP) =  -424.213479994     A.U. after   14 cycles
 SCF Done:  E(RB3LYP) =  -424.213961217     A.U. after   16 cycles
 SCF Done:  E(RB3LYP) =  -424.213396282     A.U. after   15 cycles
 SCF Done:  E(RB3LYP) =  -424.214154812     A.U. after   14 cycles
 SCF Done:  E(RB3LYP) =  -424.214433125     A.U. after   12 cycles
 SCF Done:  E(RB3LYP) =  -424.214692142     A.U. after   13 cycles
 SCF Done:  E(RB3LYP) =  -424.214749393     A.U. after   12 cycles
 SCF Done:  E(RB3LYP) =  -424.214760159     A.U. after   11 cycles
 SCF Done:  E(RB3LYP) =  -424.214761343     A.U. after    9 cycles
 SCF Done:  E(RB3LYP) =  -424.214761370     A.U. after    7 cycles
 Optimization completed.
    -- Stationary point found.
 Normal termination of Gaussian 09 at Mon Oct  4 06:23:12 2021.

 ----------------------------------------------------------------------
 #p freq b3lyp/6-31G* volume NMR pop=NPA density=current Geom=AllCheck
 Guess=Read
 ----------------------------------------------------------------------

 Cc1ccc(cc1)C(=O)C_conf_0
 ------------------------
 Redundant internal coordinates taken from checkpoint file:
 C9H10O_90c4_conf_0.chk
 Charge =  0 Multiplicity = 1

 SCF Done:  E(RB3LYP) =  -424.214761370     A.U. after    1 cycles

  1  C    Isotropic =   167.4240   Anisotropy =    34.6305

  2  C    Isotropic =    53.1902   Anisotropy =   187.2425

  3  C    Isotropic =    67.4629   Anisotropy =   142.3292

  4  C    Isotropic =    66.9453   Anisotropy =   162.4111

  5  C    Isotropic =    62.8827   Anisotropy =   159.8967

  6  C    Isotropic =    66.5711   Anisotropy =   178.6422

  7  C    Isotropic =    67.1485   Anisotropy =   153.7434

  8  C    Isotropic =     3.8425   Anisotropy =   151.6550

  9  O    Isotropic =  -264.2013   Anisotropy =   930.9569

 10  C    Isotropic =   163.8850   Anisotropy =    38.8546

 11  H    Isotropic =    30.3551   Anisotropy =     6.8918

 12  H    Isotropic =    29.7153   Anisotropy =     7.8273

 13  H    Isotropic =    29.7275   Anisotropy =     7.7829

 14  H    Isotropic =    25.1741   Anisotropy =     6.7072

 15  H    Isotropic =    24.6784   Anisotropy =     7.6386

 16  H    Isotropic =    24.0236   Anisotropy =     6.4265

 17  H    Isotropic =    24.9535   Anisotropy =     7.0784

 18  H    Isotropic =    29.6999   Anisotropy =     4.3443

 19  H    Isotropic =    30.3187   Anisotropy =     6.3217

 20  H    Isotropic =    29.6998   Anisotropy =     4.3447

  Exact polarizability: 139.354  -0.727  98.845  -0.034  -0.001  45.231
 Approx polarizability: 200.735 -11.897 173.553  -0.042  -0.005  67.694

                     1                      2                      3
                     A                      A                      A
 Frequencies --    15.0683                71.0442               103.8209
 Red. masses --     1.0474                 3.9576                 3.8806
 Frc consts  --     0.0001                 0.0118                 0.0246
 IR Inten    --     0.4106                 3.0462                 0.0285

                     4                      5                      6
                     A                      A                      A
 Frequencies --   165.4380               191.6554               269.3489
 Red. masses --     1.0327                 3.8170                 3.8756
 Frc consts  --     0.0167                 0.0826                 0.1657
 IR Inten    --     0.2333                 3.8972                 1.4525

                     7                      8                      9
                     A                      A                      A
 Frequencies --   331.9114               355.8928               417.6096
 Red. masses --     3.2278                 3.9592                 2.9940
 Frc consts  --     0.2095                 0.2955                 0.3076
 IR Inten    --     0.4105                 2.5208                 0.0010

                    10                     11                     12
                     A                      A                      A
 Frequencies --   462.6365               476.1660               574.6854
 Red. masses --     3.5625                 2.8665                 4.9447
 Frc consts  --     0.4492                 0.3829                 0.9622
 IR Inten    --     1.0149                 3.0205                18.7645

                    13                     14                     15
                     A                      A                      A
 Frequencies --   604.5010               652.8175               681.4481
 Red. masses --     2.4019                 6.8875                 3.9420
 Frc consts  --     0.5171                 1.7294                 1.0785
 IR Inten    --     9.3312                 0.4669                 8.4575

                    16                     17                     18
                     A                      A                      A
 Frequencies --   732.0778               823.6415               832.6182
 Red. masses --     3.2410                 5.1717                 1.3495
 Frc consts  --     1.0234                 2.0671                 0.5512
 IR Inten    --     1.9184                 0.0725                26.4003

                    19                     20                     21
                     A                      A                      A
 Frequencies --   865.9551               962.5676               965.9503
 Red. masses --     1.2655                 1.3158                 2.2307
 Frc consts  --     0.5591                 0.7183                 1.2263
 IR Inten    --     3.8973                 0.1601                31.9005

                    22                     23                     24
                     A                      A                      A
 Frequencies --   996.2100              1019.7667              1038.8606
 Red. masses --     1.2999                 1.4288                 2.9449
 Frc consts  --     0.7601                 0.8754                 1.8726
 IR Inten    --     1.1309                 7.1851                 5.7529

                    25                     26                     27
                     A                      A                      A
 Frequencies --  1057.4668              1074.3404              1100.0845
 Red. masses --     1.8481                 1.5400                 2.3971
 Frc consts  --     1.2176                 1.0472                 1.7092
 IR Inten    --     1.7882                 5.3030                 1.6491

                    28                     29                     30
                     A                      A                      A
 Frequencies --  1150.7834              1217.1057              1240.3300
 Red. masses --     1.2966                 1.1477                 3.2555
 Frc consts  --     1.0117                 1.0017                 2.9508
 IR Inten    --     7.4258                30.8009                 4.5688

                    31                     32                     33
                     A                      A                      A
 Frequencies --  1294.5562              1347.4551              1358.7679
 Red. masses --     3.4628                 1.3525                 7.0118
 Frc consts  --     3.4191                 1.4468                 7.6272
 IR Inten    --   198.7284                 5.8184                 1.4007

                    34                     35                     36
                     A                      A                      A
 Frequencies --  1412.3105              1441.7363              1455.6106
 Red. masses --     1.3305                 1.2505                 2.6195
 Frc consts  --     1.5636                 1.5315                 3.2701
 IR Inten    --    39.1413                 0.0347                18.5361

                    37                     38                     39
                     A                      A                      A
 Frequencies --  1499.9800              1509.0877              1514.2146
 Red. masses --     1.0571                 1.0482                 1.0445
 Frc consts  --     1.4013                 1.4064                 1.4110
 IR Inten    --     9.1286                 9.4085                 5.6351

                    40                     41                     42
                     A                      A                      A
 Frequencies --  1522.3470              1557.1322              1624.6580
 Red. masses --     1.1121                 2.4664                 5.4918
 Frc consts  --     1.5185                 3.5234                 8.5406
 IR Inten    --    11.2867                 0.4475                 9.0628

                    43                     44                     45
                     A                      A                      A
 Frequencies --  1668.0211              1775.8806              3045.6155
 Red. masses --     5.7115                10.6761                 1.0376
 Frc consts  --     9.3627                19.8376                 5.6704
 IR Inten    --    66.7569               171.3737                25.2442

                    46                     47                     48
                     A                      A                      A
 Frequencies --  3053.5784              3097.7937              3112.9273
 Red. masses --     1.0383                 1.1007                 1.1000
 Frc consts  --     5.7041                 6.2231                 6.2803
 IR Inten    --     3.0010                16.9512                10.5317

                    49                     50                     51
                     A                      A                      A
 Frequencies --  3129.4826              3169.1962              3180.2499
 Red. masses --     1.1011                 1.1012                 1.0894
 Frc consts  --     6.3536                 6.5166                 6.4920
 IR Inten    --    16.3728                13.5640                17.2464

                    52                     53                     54
                     A                      A                      A
 Frequencies --  3182.4800              3208.4973              3224.5576
 Red. masses --     1.0885                 1.0924                 1.0919
 Frc consts  --     6.4952                 6.6255                 6.6891
 IR Inten    --    14.3944                13.8571                 3.1750

 - Thermochemistry -
 -------------------
 Temperature   298.150 Kelvin.  Pressure   1.00000 Atm.
 Atom     1 has atomic number  6 and mass  12.00000

 Molecular mass:   134.07317 amu.
 Principal axes and moments of inertia in atomic units:
                           1         2         3
     Eigenvalues --   499.488512310.824892787.89185
           X            0.99973   0.02343  -0.00003
           Y           -0.02343   0.99973   0.00001
           Z            0.00003  -0.00001   1.00000
 This molecule is an asymmetric top.
 Rotational symmetry number  1.
 Warning -- assumption of classical behavior for rotation
           may cause significant error
 Rotational temperatures (Kelvin)      0.17341     0.03748     0.03107
 Rotational constants (GHZ):           3.61318     0.78099     0.64735
 Zero-point vibrational energy     435667.6 (Joules/Mol)
                                  104.12706 (Kcal/Mol)
 Warning -- explicit consideration of  13 degrees of freedom as
           vibrations may cause significant error
 Vibrational temperatures:     21.68   102.22   149.37   238.03   275.75
          (Kelvin)            387.53   477.55   512.05   600.85   665.63
                              685.10   826.84   869.74   939.26   980.45
                             1053.30  1185.03  1197.95  1245.91  1384.92
                             1389.79  1433.32  1467.21  1494.69  1521.46
                             1545.73  1582.77  1655.72  1751.14  1784.56
                             1862.58  1938.68  1954.96  2032.00  2074.33
                             2094.30  2158.13  2171.24  2178.61  2190.31
                             2240.36  2337.52  2399.91  2555.09  4381.96
                             4393.41  4457.03  4478.80  4502.62  4559.76
                             4575.66  4578.87  4616.31  4639.41

 Zero-point correction=                           0.165937 (Hartree/Particle)
 Thermal correction to Energy=                    0.175661
 Thermal correction to Enthalpy=                  0.176605
 Thermal correction to Gibbs Free Energy=         0.129402
 Sum of electronic and zero-point Energies=           -424.048824
 Sum of electronic and thermal Energies=              -424.039100
 Sum of electronic and thermal Enthalpies=            -424.038156
 Sum of electronic and thermal Free Energies=         -424.085360

                     E (Thermal)             CV                S
                      KCal/Mol        Cal/Mol-Kelvin    Cal/Mol-Kelvin
 Total                  110.229             35.566             99.348
 Electronic               0.000              0.000              0.000
 Translational            0.889              2.981             40.592
 Rotational               0.889              2.981             29.555
 Vibrational            108.452             29.604             29.201
 Vibration     1          0.593              1.986              7.197
 Vibration     2          0.598              1.968              4.124
 Vibration     3          0.605              1.946              3.381
 Vibration     4          0.624              1.885              2.487
 Vibration     5          0.634              1.851              2.212
 Vibration     6          0.674              1.730              1.600
 Vibration     7          0.714              1.612              1.251
 Vibration     8          0.731              1.563              1.140
 Vibration     9          0.781              1.432              0.900
 Vibration    10          0.820              1.333              0.758
 Vibration    11          0.833              1.303              0.720
 Vibration    12          0.931              1.086              0.495
 Vibration    13          0.963              1.022              0.442

 Normal termination of Gaussian 09 at Mon Oct  4 07:06:03 2021.
 Gaussian 09:  AM64L-G09RevA.02 11-Jun-2009

 ----------------------------------------------------------------------
 #p TD(NStates=10, Root=1) b3lyp/6-31G* volume pop=NPA density=current
 Geom=AllCheck Guess=Read
 ----------------------------------------------------------------------

 Cc1ccc(cc1)C(=O)C_conf_0
 ------------------------
 Redundant internal coordinates taken from checkpoint file:
 C9H10O_90c4_conf_0.chk
 Charge =  0 Multiplicity = 1

                         Standard orientation:
 ---------------------------------------------------------------------
 Center     Atomic      Atomic             Coordinates (Angstroms)
 Number     Number       Type             X           Y           Z
 ---------------------------------------------------------------------
      1          6           0       -3.643250    0.092813    0.001222
      2          6           0       -2.134120    0.044948   -0.000797
      3          6           0       -1.370555    1.218007   -0.000856
      4          6           0        0.023243    1.169756   -0.000393
      5          6           0        0.692938   -0.061099   -0.000066
      6          6           0       -0.070369   -1.240724   -0.000307
      7          6           0       -1.457363   -1.186699   -0.000789
      8          6           0        2.185315   -0.178666    0.000238
      9          8           0        2.725897   -1.275059    0.000376
     10          6           0        3.022460    1.091334    0.000434
     11          1           0       -4.012627    1.122500   -0.023399
     12          1           0       -4.054663   -0.390017    0.896443
     13          1           0       -4.059023   -0.434772   -0.866033
     14          1           0       -1.873186    2.182293   -0.001358
     15          1           0        0.582943    2.100305   -0.000582
     16          1           0        0.454578   -2.190546   -0.000395
     17          1           0       -2.031573   -2.110782   -0.001274
     18          1           0        2.809591    1.705219   -0.882950
     19          1           0        4.077684    0.813136    0.000597
     20          1           0        2.809310    1.705122    0.883818
 ---------------------------------------------------------------------

 SCF Done:  E(RB3LYP) =  -424.214761370     A.U. after    1 cycles

 Excitation energies and oscillator strengths:

 Excited State   1:      Singlet-A      3.7608 eV  329.67 nm  f=0.0000  <S**2>=0.000
      36 -> 37         0.69412
      36 -> 39        -0.12900
 This state for optimization and/or second-order correction.
 Total Energy, E(TD-HF/TD-KS) =  -424.076554095
 Copying the excited state density for this state as the 1-particle RhoCI density.

 Excited State   2:      Singlet-A      4.8163 eV  257.43 nm  f=0.0152  <S**2>=0.000
      34 -> 37         0.62752
      35 -> 37         0.13039
      35 -> 38         0.29345

 Excited State   3:      Singlet-A      5.1278 eV  241.79 nm  f=0.3158  <S**2>=0.000
      34 -> 37        -0.12253
      34 -> 38        -0.14186
      35 -> 37         0.67383

 Excited State   4:      Singlet-A      5.5957 eV  221.57 nm  f=0.0000  <S**2>=0.000
      36 -> 38         0.70585

 Excited State   5:      Singlet-A      6.2053 eV  199.80 nm  f=0.1021  <S**2>=0.000
      34 -> 37        -0.27946
      34 -> 39         0.27118
      35 -> 38         0.58262

 Excited State   6:      Singlet-A      6.5531 eV  189.20 nm  f=0.0012  <S**2>=0.000
      33 -> 37        -0.11513
      36 -> 37         0.12981
      36 -> 39         0.67424

 Excited State   7:      Singlet-A      6.7442 eV  183.84 nm  f=0.1819  <S**2>=0.000
      33 -> 37        -0.45512
      34 -> 38         0.47041
      35 -> 39        -0.21248

 Excited State   8:      Singlet-A      6.7443 eV  183.84 nm  f=0.1392  <S**2>=0.000
      33 -> 37         0.52014
      34 -> 38         0.41138
      35 -> 39        -0.18552

 Excited State   9:      Singlet-A      7.1469 eV  173.48 nm  f=0.0005  <S**2>=0.000
      31 -> 37         0.69404

 Excited State  10:      Singlet-A      7.2716 eV  170.50 nm  f=0.1345  <S**2>=0.000
      32 -> 37         0.50932
      34 -> 38        -0.15034
      35 -> 39        -0.44557

 The electronic state is 1-A.
 Alpha  occ. eigenvalues --  -19.13033 -10.27199 -10.20946 -10.20154 -10.19654
 Alpha  occ. eigenvalues --  -10.19542 -10.19389 -10.19302 -10.19187 -10.18683
 Alpha  occ. eigenvalues --   -1.02966  -0.86325  -0.78725  -0.75253  -0.73778
 Alpha  occ. eigenvalues --   -0.69443  -0.61239  -0.60576  -0.55069  -0.49463
 Alpha  occ. eigenvalues --   -0.47190  -0.45500  -0.44004  -0.43943  -0.42648
 Alpha  occ. eigenvalues --   -0.42534  -0.41559  -0.38964  -0.38530  -0.37116
 Alpha  occ. eigenvalues --   -0.35528  -0.34277  -0.34215  -0.25713  -0.24810
 Alpha  occ. eigenvalues --   -0.24386
 Alpha virt. eigenvalues --   -0.05057  -0.00624   0.04218   0.08990   0.10733
 Alpha virt. eigenvalues --    0.12924   0.13476   0.14635   0.15502   0.16378
 Alpha virt. eigenvalues --    0.17498   0.18768   0.19799   0.19953   0.22319

 Mulliken atomic charges:
              1
     1  C   -0.528720
     2  C    0.163365
     3  C   -0.183023
     4  C   -0.205961
     5  C    0.108949
     6  C   -0.189234
     7  C   -0.177905
     8  C    0.309088
     9  O   -0.305852
    10  C   -0.513938
    11  H    0.149262
    12  H    0.156245
    13  H    0.155821
    14  H    0.118090
    15  H    0.112355
    16  H    0.135336
    17  H    0.119643
    18  H    0.196452
    19  H    0.183575
    20  H    0.196453
 Sum of Mulliken atomic charges =  -0.00000

 Dipole moment (field-independent basis, Debye):
    X=              0.9621    Y=              1.6492    Z=              0.0027  Tot=              1.9093
 Quadrupole moment (field-independent basis, Debye-Ang):
   XX=            -52.0736   YY=            -55.8750   ZZ=            -61.6529
   XY=              5.7230   XZ=             -0.0050   YZ=              0.0010

 Summary of Natural Population Analysis:

                                       Natural Population
                Natural  -----------------------------------------------
    Atom  No    Charge         Core      Valence    Rydberg      Total
 -----------------------------------------------------------------------
      C    1   -0.68432      1.99940     4.67766    0.00726     6.68432
      C    2   -0.06341      1.99904     4.04997    0.01441     6.06341
      C    3   -0.22441      1.99903     4.21215    0.01322     6.22441
      C    4   -0.24192      1.99904     4.22962    0.01326     6.24192
      C    5   -0.16114      1.99889     4.14744    0.01481     6.16114
      C    6   -0.22274      1.99905     4.20928    0.01440     6.22274
      C    7   -0.22534      1.99903     4.21335    0.01296     6.22534
      C    8    0.37152      1.99928     3.59669    0.03252     5.62848
      O    9   -0.25580      1.99981     6.23793    0.01806     8.25580
      C   10   -0.70783      1.99932     4.70177    0.00674     6.70783
      H   11    0.23319      0.00000     0.76598    0.00084     0.76681
      H   12    0.23721      0.00000     0.76157    0.00122     0.76279
      H   13    0.23708      0.00000     0.76172    0.00120     0.76292
      H   14    0.23187      0.00000     0.76712    0.00101     0.76813
      H   15    0.22680      0.00000     0.77218    0.00102     0.77320
      H   16    0.23759      0.00000     0.76156    0.00085     0.76241
      H   17    0.23285      0.00000     0.76613    0.00102     0.76715
      H   18    0.26072      0.00000     0.73803    0.00125     0.73928
      H   19    0.25735      0.00000     0.74151    0.00113     0.74265
      H   20    0.26072      0.00000     0.73803    0.00125     0.73928
 =======================================================================
   * Total *    0.00000     19.99189    51.84966    0.15845    72.00000

 Normal termination of Gaussian 09 at Mon Oct  4 09:59:02 2021.
