 Gaussian 09, Revision A.02,

 -----------------------------------
 #p opt b3lyp/6-31G* scf=(xqc,tight)
 -----------------------------------

 -------------------------
 COc1ccc(cc1)C(=O)C_conf_0
 -------------------------
 Symbolic Z-matrix:
 Charge =  0 Multiplicity = 1

 SCF Done:  E(RB3LYP) =  -499.418588243     A.U. after   15 cycles
 SCF Done:  E(RB3LYP) =  -499.420503651     A.U. after   13 cycles
 SCF Done:  E(RB3LYP) =  -499.420478946     A.U. after   12 cycles
 SCF Done:  E(RB3LYP) =  -499.420499946     A.U. after   12 cycles
 SCF Done:  E(RB3LYP) =  -499.420770891     A.U. after   12 cycles
 SCF Done:  E(RB3LYP) =  -499.420812158     A.U. after   11 cycles
 SCF Done:  E(RB3LYP) =  -499.420824350     A.U. after   16 cycles
 SCF Done:  E(RB3LYP) =  -499.420825067     A.U. after    8 cycles
 SCF Done:  E(RB3LYP) =  -499.420825140     A.U. after    7 cycles
 Optimization completed.
    -- Stationary point found.
 Normal termination of Gaussian 09 at Mon Oct  4 05:45:14 2021.

 ----------------------------------------------------------------------
 #p freq b3lyp/6-31G* volume NMR pop=NPA density=current Geom=AllCheck
 Guess=Read
 ----------------------------------------------------------------------

 COc1ccc(cc1)C(=O)C_conf_0
 -------------------------
 Redundant internal coordinates taken from checkpoint file:
 C9H10O2_444d_conf_0.chk
 Charge =  0 Multiplicity = 1

 SCF Done:  E(RB3LYP) =  -499.420825140     A.U. after    1 cycles

  1  C    Isotropic =   137.1557   Anisotropy =    65.7040

  2  O    Isotropic =   227.0460   Anisotropy =    96.8481

  3  C    Isotropic =    35.6335   Anisotropy =   131.6860

  4  C    Isotropic =    86.1110   Anisotropy =   142.2340

  5  C    Isotropic =    64.0500   Anisotropy =   180.3320

  6  C    Isotropic =    67.1740   Anisotropy =   152.9395

  7  C    Isotropic =    65.5852   Anisotropy =   163.7623

  8  C    Isotropic =    79.1926   Anisotropy =   132.2001

  9  C    Isotropic =     5.2063   Anisotropy =   150.4756

 10  O    Isotropic =  -252.4369   Anisotropy =   911.6859

 11  C    Isotropic =   163.8952   Anisotropy =    38.7587

 12  H    Isotropic =    28.2555   Anisotropy =     7.8028

 13  H    Isotropic =    28.5824   Anisotropy =     7.9521

 14  H    Isotropic =    28.5827   Anisotropy =     7.9517

 15  H    Isotropic =    25.6920   Anisotropy =     7.4319

 16  H    Isotropic =    23.9984   Anisotropy =     6.6880

 17  H    Isotropic =    24.6354   Anisotropy =     7.6219

 18  H    Isotropic =    25.5380   Anisotropy =     6.0661

 19  H    Isotropic =    29.7362   Anisotropy =     4.3733

 20  H    Isotropic =    30.3613   Anisotropy =     6.3369

 21  H    Isotropic =    29.7364   Anisotropy =     4.3745

  Exact polarizability: 154.849   0.089 100.307  -0.000  -0.000  47.361
 Approx polarizability: 222.021  16.565 177.328  -0.001  -0.000  70.548

                     1                      2                      3
                     A                      A                      A
 Frequencies --    61.0701                80.9673               127.6741
 Red. masses --     3.1576                 4.3660                 4.4102
 Frc consts  --     0.0069                 0.0169                 0.0424
 IR Inten    --     4.9726                 0.6291                 4.4898

                     4                      5                      6
                     A                      A                      A
 Frequencies --   166.0320               168.5420               228.3648
 Red. masses --     1.0364                 4.1973                 1.1892
 Frc consts  --     0.0168                 0.0702                 0.0365
 IR Inten    --     0.1589                 5.9169                 0.0193

                     7                      8                      9
                     A                      A                      A
 Frequencies --   263.5515               302.5823               339.1099
 Red. masses --     3.1078                 3.7092                 6.4471
 Frc consts  --     0.1272                 0.2001                 0.4368
 IR Inten    --     0.0409                 0.6509                 1.0368

                    10                     11                     12
                     A                      A                      A
 Frequencies --   427.1486               431.3457               510.8363
 Red. masses --     3.1445                 3.6515                 3.0045
 Frc consts  --     0.3380                 0.4003                 0.4619
 IR Inten    --     0.0142                 1.9136                 1.0975

                    13                     14                     15
                     A                      A                      A
 Frequencies --   521.1563               572.0480               601.5363
 Red. masses --     3.9279                 5.1417                 2.2784
 Frc consts  --     0.6286                 0.9913                 0.4857
 IR Inten    --     1.4815                43.3000                10.0861

                    16                     17                     18
                     A                      A                      A
 Frequencies --   646.8862               684.6534               736.5848
 Red. masses --     7.0027                 4.3218                 3.9886
 Frc consts  --     1.7265                 1.1936                 1.2750
 IR Inten    --     3.2151                 2.4497                 1.0557

                    19                     20                     21
                     A                      A                      A
 Frequencies --   827.1739               832.4785               849.4819
 Red. masses --     5.6489                 1.2449                 1.6402
 Frc consts  --     2.2773                 0.5083                 0.6973
 IR Inten    --     7.1077                 0.0155                53.6425

                    22                     23                     24
                     A                      A                      A
 Frequencies --   963.7432               967.5263               983.8184
 Red. masses --     1.2911                 2.2274                 1.3015
 Frc consts  --     0.7065                 1.2285                 0.7422
 IR Inten    --     0.0073                44.4127                 0.8886

                    25                     26                     27
                     A                      A                      A
 Frequencies --  1026.6578              1055.9389              1071.8301
 Red. masses --     2.8190                 1.8451                 6.7469
 Frc consts  --     1.7506                 1.2121                 4.5668
 IR Inten    --     0.1005                 1.7619                56.6850

                    28                     29                     30
                     A                      A                      A
 Frequencies --  1101.5013              1148.0777              1182.7392
 Red. masses --     2.3334                 1.2973                 1.2701
 Frc consts  --     1.6681                 1.0075                 1.0468
 IR Inten    --     2.5619                 8.0004                 0.7446

                    31                     32                     33
                     A                      A                      A
 Frequencies --  1203.2823              1216.5539              1296.6925
 Red. masses --     1.1736                 1.3832                 3.9281
 Frc consts  --     1.0012                 1.2061                 3.8914
 IR Inten    --   129.0715                 3.8791               374.5030

                    34                     35                     36
                     A                      A                      A
 Frequencies --  1311.8890              1341.9507              1365.7473
 Red. masses --     3.5693                 1.3410                 8.1126
 Frc consts  --     3.6194                 1.4228                 8.9156
 IR Inten    --   132.2263                11.3562                72.8003

                    37                     38                     39
                     A                      A                      A
 Frequencies --  1409.9668              1465.7042              1498.3539
 Red. masses --     1.3436                 3.1675                 1.1940
 Frc consts  --     1.5738                 4.0092                 1.5793
 IR Inten    --    61.6858                 8.6827                14.3717

                    40                     41                     42
                     A                      A                      A
 Frequencies --  1500.5745              1509.0709              1520.7386
 Red. masses --     1.0716                 1.0484                 1.0481
 Frc consts  --     1.4216                 1.4067                 1.4281
 IR Inten    --     4.2955                 8.8639                 6.1455

                    43                     44                     45
                     A                      A                      A
 Frequencies --  1531.9887              1562.9422              1623.6177
 Red. masses --     1.0578                 2.4570                 6.7541
 Frc consts  --     1.4627                 3.5363                10.4902
 IR Inten    --    39.8386                33.8772                 3.5982

                    46                     47                     48
                     A                      A                      A
 Frequencies --  1663.1325              1771.2934              3032.6875
 Red. masses --     5.5913                10.5279                 1.0343
 Frc consts  --     9.1120                19.4613                 5.6046
 IR Inten    --   253.6254               172.0204                53.4530

                    49                     50                     51
                     A                      A                      A
 Frequencies --  3052.7242              3094.8455              3112.0196
 Red. masses --     1.0382                 1.1071                 1.1000
 Frc consts  --     5.7006                 6.2478                 6.2767
 IR Inten    --     3.2754                38.3601                11.1732

                    52                     53                     54
                     A                      A                      A
 Frequencies --  3163.2870              3169.0367              3204.3238
 Red. masses --     1.1004                 1.1011                 1.0870
 Frc consts  --     6.4877                 6.5154                 6.5757
 IR Inten    --    24.1588                13.1533                 7.9006

                    55                     56                     57
                     A                      A                      A
 Frequencies --  3217.9253              3221.0542              3231.9487
 Red. masses --     1.0874                 1.0942                 1.0932
 Frc consts  --     6.6343                 6.6889                 6.7279
 IR Inten    --     1.3530                 9.1203                10.2726

 - Thermochemistry -
 -------------------
 Temperature   298.150 Kelvin.  Pressure   1.00000 Atm.
 Atom     1 has atomic number  6 and mass  12.00000

 Molecular mass:   150.06808 amu.
 Principal axes and moments of inertia in atomic units:
                           1         2         3
     Eigenvalues --   542.591823184.437433704.25992
           X            0.99953  -0.03081   0.00000
           Y            0.03081   0.99953  -0.00000
           Z           -0.00000   0.00000   1.00000
 This molecule is an asymmetric top.
 Rotational symmetry number  1.
 Warning -- assumption of classical behavior for rotation
           may cause significant error
 Rotational temperatures (Kelvin)      0.15963     0.02720     0.02338
 Rotational constants (GHZ):           3.32615     0.56674     0.48721
 Zero-point vibrational energy     449642.8 (Joules/Mol)
                                  107.46721 (Kcal/Mol)
 Warning -- explicit consideration of  15 degrees of freedom as
           vibrations may cause significant error
 Vibrational temperatures:     87.87   116.49   183.69   238.88   242.49
          (Kelvin)            328.57   379.19   435.35   487.90   614.57
                              620.61   734.98   749.83   823.05   865.48
                              930.72   985.06  1059.78  1190.12  1197.75
                             1222.21  1386.61  1392.05  1415.49  1477.13
                             1519.26  1542.12  1584.81  1651.83  1701.70
                             1731.25  1750.35  1865.65  1887.51  1930.77
                             1965.00  2028.63  2108.82  2155.79  2158.99
                             2171.21  2188.00  2204.19  2248.72  2336.02
                             2392.87  2548.49  4363.36  4392.18  4452.79
                             4477.50  4551.26  4559.53  4610.30  4629.87
                             4634.37  4650.05

 Zero-point correction=                           0.171260 (Hartree/Particle)
 Thermal correction to Energy=                    0.181643
 Thermal correction to Enthalpy=                  0.182587
 Thermal correction to Gibbs Free Energy=         0.135111
 Sum of electronic and zero-point Energies=           -499.249565
 Sum of electronic and thermal Energies=              -499.239182
 Sum of electronic and thermal Enthalpies=            -499.238238
 Sum of electronic and thermal Free Energies=         -499.285714

                     E (Thermal)             CV                S
                      KCal/Mol        Cal/Mol-Kelvin    Cal/Mol-Kelvin
 Total                  113.983             38.686             99.921
 Electronic               0.000              0.000              0.000
 Translational            0.889              2.981             40.928
 Rotational               0.889              2.981             30.238
 Vibrational            112.205             32.725             28.755
 Vibration     1          0.597              1.973              4.422
 Vibration     2          0.600              1.962              3.867
 Vibration     3          0.611              1.926              2.981
 Vibration     4          0.624              1.884              2.480
 Vibration     5          0.625              1.881              2.452
 Vibration     6          0.651              1.798              1.892
 Vibration     7          0.670              1.740              1.638
 Vibration     8          0.694              1.669              1.403
 Vibration     9          0.719              1.597              1.216
 Vibration    10          0.789              1.411              0.868
 Vibration    11          0.792              1.402              0.854
 Vibration    12          0.866              1.226              0.632
 Vibration    13          0.876              1.203              0.607
 Vibration    14          0.928              1.092              0.500
 Vibration    15          0.960              1.029              0.447

 Optimization completed.
    -- Stationary point found.
 Normal termination of Gaussian 09 at Mon Oct  4 06:40:28 2021.
 Gaussian 09:  AM64L-G09RevA.02 11-Jun-2009

 ----------------------------------------------------------------------
 #p TD(NStates=10, Root=1) b3lyp/6-31G* volume pop=NPA density=current
 Geom=AllCheck Guess=Read
 ----------------------------------------------------------------------

 COc1ccc(cc1)C(=O)C_conf_0
 -------------------------
 Redundant internal coordinates taken from checkpoint file:
 C9H10O2_444d_conf_0.chk
 Charge =  0 Multiplicity = 1

                         Standard orientation:
 ---------------------------------------------------------------------
 Center     Atomic      Atomic             Coordinates (Angstroms)
 Number     Number       Type             X           Y           Z
 ---------------------------------------------------------------------
      1          6           0        3.934929   -0.514678    0.000165
      2          8           0        3.017171    0.570610   -0.000088
      3          6           0        1.685822    0.296438   -0.000061
      4          6           0        1.137173   -0.995484   -0.000042
      5          6           0       -0.244955   -1.151766   -0.000032
      6          6           0       -1.107554   -0.046729   -0.000013
      7          6           0       -0.540083    1.240786   -0.000047
      8          6           0        0.835654    1.414359   -0.000073
      9          6           0       -2.579440   -0.292501   -0.000001
     10          8           0       -3.027385   -1.431166   -0.000069
     11          6           0       -3.522130    0.902472    0.000143
     12          1           0        4.928444   -0.063390    0.000276
     13          1           0        3.819212   -1.138994   -0.894909
     14          1           0        3.818924   -1.138828    0.895317
     15          1           0        1.774557   -1.872227   -0.000035
     16          1           0       -0.685983   -2.143449   -0.000028
     17          1           0       -1.177099    2.120035   -0.000056
     18          1           0        1.281718    2.403822   -0.000105
     19          1           0       -3.362167    1.532335    0.883512
     20          1           0       -4.549862    0.535452    0.000358
     21          1           0       -3.362532    1.532304   -0.883306
 ---------------------------------------------------------------------

 SCF Done:  E(RB3LYP) =  -499.420825140     A.U. after    1 cycles

 Excitation energies and oscillator strengths:

 Excited State   1:      Singlet-A      3.8342 eV  323.36 nm  f=0.0000  <S**2>=0.000
      39 -> 41         0.69543
      39 -> 43        -0.12275
 This state for optimization and/or second-order correction.
 Total Energy, E(TD-HF/TD-KS) =  -499.279921241
 Copying the excited state density for this state as the 1-particle RhoCI density.

 Excited State   2:      Singlet-A      4.7918 eV  258.74 nm  f=0.3428  <S**2>=0.000
      38 -> 41         0.11329
      38 -> 42         0.12263
      40 -> 41         0.67975

 Excited State   3:      Singlet-A      4.9021 eV  252.92 nm  f=0.0196  <S**2>=0.000
      38 -> 41         0.52876
      40 -> 41        -0.13102
      40 -> 42        -0.44538

 Excited State   4:      Singlet-A      5.4677 eV  226.76 nm  f=0.0000  <S**2>=0.000
      39 -> 42         0.70622

 Excited State   5:      Singlet-A      5.8464 eV  212.07 nm  f=0.1311  <S**2>=0.000
      38 -> 41         0.44156
      38 -> 43        -0.17010
      40 -> 42         0.51510

 Excited State   6:      Singlet-A      6.7259 eV  184.34 nm  f=0.0007  <S**2>=0.000
      36 -> 41        -0.27175
      39 -> 41         0.11647
      39 -> 43         0.63250

 Excited State   7:      Singlet-A      6.7366 eV  184.05 nm  f=0.2227  <S**2>=0.000
      38 -> 42         0.58658
      40 -> 43         0.36903

 Excited State   8:      Singlet-A      6.8080 eV  182.12 nm  f=0.0003  <S**2>=0.000
      34 -> 41        -0.10682
      36 -> 41         0.63304
      39 -> 43         0.27459

 Excited State   9:      Singlet-A      6.9933 eV  177.29 nm  f=0.0700  <S**2>=0.000
      37 -> 41         0.66342
      40 -> 43        -0.17630

 Excited State  10:      Singlet-A      7.2766 eV  170.39 nm  f=0.3269  <S**2>=0.000
      35 -> 41        -0.20806
      37 -> 41         0.17868
      38 -> 42        -0.32629
      40 -> 43         0.53686

 The electronic state is 1-A.
 Alpha  occ. eigenvalues --  -19.19047 -19.12540 -10.26818 -10.26115 -10.25009
 Alpha  occ. eigenvalues --  -10.20285 -10.19740 -10.19614 -10.19350 -10.19193
 Alpha  occ. eigenvalues --  -10.18423  -1.07649  -1.02482  -0.85942  -0.77406
 Alpha  occ. eigenvalues --   -0.75915  -0.73200  -0.70505  -0.61759  -0.61374
 Alpha  occ. eigenvalues --   -0.55252  -0.53630  -0.49253  -0.47833  -0.47194
 Alpha  occ. eigenvalues --   -0.45646  -0.43681  -0.43298  -0.42774  -0.41037
 Alpha  occ. eigenvalues --   -0.40187  -0.38700  -0.37306  -0.36446  -0.35624
 Alpha  occ. eigenvalues --   -0.33278  -0.32040  -0.26039  -0.24033  -0.22845
 Alpha virt. eigenvalues --   -0.04362  -0.00761   0.05199   0.08692   0.09719
 Alpha virt. eigenvalues --    0.11510   0.13465   0.14713   0.15184   0.15838
 Alpha virt. eigenvalues --    0.15843   0.16560   0.18365   0.18496   0.20573

 Mulliken atomic charges:
              1
     1  C   -0.212057
     2  O   -0.508411
     3  C    0.356995
     4  C   -0.191474
     5  C   -0.207381
     6  C    0.115126
     7  C   -0.208827
     8  C   -0.172859
     9  C    0.303164
    10  O   -0.313097
    11  C   -0.513556
    12  H    0.167024
    13  H    0.150026
    14  H    0.150027
    15  H    0.128940
    16  H    0.136964
    17  H    0.116886
    18  H    0.134656
    19  H    0.193067
    20  H    0.181722
    21  H    0.193065
 Sum of Mulliken atomic charges =  -0.00000

 Dipole moment (field-independent basis, Debye):
    X=             -0.2950    Y=              0.5294    Z=              0.0005  Tot=              0.6060
 Quadrupole moment (field-independent basis, Debye-Ang):
   XX=            -52.0552   YY=            -61.9414   ZZ=            -66.7788
   XY=            -10.4989   XZ=              0.0005   YZ=             -0.0000

 Summary of Natural Population Analysis:

                                       Natural Population
                Natural  -----------------------------------------------
    Atom  No    Charge         Core      Valence    Rydberg      Total
 -----------------------------------------------------------------------
      C    1   -0.31562      1.99943     4.30239    0.01380     6.31562
      O    2   -0.52124      1.99974     6.50967    0.01183     8.52124
      C    3    0.29068      1.99882     3.68804    0.02247     5.70932
      C    4   -0.30965      1.99903     4.29849    0.01214     6.30965
      C    5   -0.21871      1.99906     4.20459    0.01506     6.21871
      C    6   -0.17228      1.99889     4.15863    0.01477     6.17228
      C    7   -0.23124      1.99905     4.21928    0.01291     6.23124
      C    8   -0.26516      1.99904     4.25144    0.01468     6.26516
      C    9    0.35806      1.99928     3.61014    0.03251     5.64194
      O   10   -0.26101      1.99981     6.24316    0.01803     8.26101
      C   11   -0.70651      1.99933     4.70043    0.00675     6.70651
      H   12    0.22662      0.00000     0.77285    0.00053     0.77338
      H   13    0.20084      0.00000     0.79712    0.00203     0.79916
      H   14    0.20084      0.00000     0.79712    0.00203     0.79916
      H   15    0.23784      0.00000     0.76130    0.00086     0.76216
      H   16    0.23857      0.00000     0.76061    0.00082     0.76143
      H   17    0.22967      0.00000     0.76937    0.00096     0.77033
      H   18    0.24591      0.00000     0.75288    0.00122     0.75409
      H   19    0.25801      0.00000     0.74066    0.00133     0.74199
      H   20    0.25639      0.00000     0.74247    0.00114     0.74361
      H   21    0.25801      0.00000     0.74066    0.00133     0.74199
 =======================================================================
   * Total *    0.00000     21.99147    57.82131    0.18721    80.00000

 Normal termination of Gaussian 09 at Mon Oct  4 10:06:12 2021.
