 Gaussian 09, Revision A.02,

 -----------------------------------
 #p opt b3lyp/6-31G* scf=(xqc,tight)
 -----------------------------------

 ----------------------------
 Br[Mg]c1ccc(cc1)C(C)C_conf_0
 ----------------------------
 Symbolic Z-matrix:
 Charge =  0 Multiplicity = 1

 SCF Done:  E(RB3LYP) =  -3121.44540808     A.U. after   14 cycles
 SCF Done:  E(RB3LYP) =  -3121.45670356     A.U. after   10 cycles
 SCF Done:  E(RB3LYP) =  -3121.46059884     A.U. after   12 cycles
 SCF Done:  E(RB3LYP) =  -3121.45407063     A.U. after   15 cycles
 SCF Done:  E(RB3LYP) =  -3121.46082512     A.U. after   14 cycles
 SCF Done:  E(RB3LYP) =  -3121.46096583     A.U. after   10 cycles
 SCF Done:  E(RB3LYP) =  -3121.46099573     A.U. after    9 cycles
 SCF Done:  E(RB3LYP) =  -3121.46099605     A.U. after    8 cycles
 SCF Done:  E(RB3LYP) =  -3121.46099703     A.U. after    8 cycles
 SCF Done:  E(RB3LYP) =  -3121.46099755     A.U. after    7 cycles
 SCF Done:  E(RB3LYP) =  -3121.46099822     A.U. after   14 cycles
 SCF Done:  E(RB3LYP) =  -3121.46099835     A.U. after    7 cycles
 Optimization completed.
    -- Stationary point found.
 Normal termination of Gaussian 09 at Sun Oct  3 11:12:26 2021.

 ----------------------------------------------------------------------
 #p freq b3lyp/6-31G* volume NMR pop=NPA density=current Geom=AllCheck
 Guess=Read
 ----------------------------------------------------------------------

 Br[Mg]c1ccc(cc1)C(C)C_conf_0
 ----------------------------
 Redundant internal coordinates taken from checkpoint file:
 C9H11BrMg_a892_conf_0.chk
 Charge =  0 Multiplicity = 1

 SCF Done:  E(RB3LYP) =  -3121.46099835     A.U. after    1 cycles

  1  Br   Isotropic =  2947.9222   Anisotropy =   251.4351

  2  Mg   Isotropic =   517.4936   Anisotropy =   278.5252

  3  C    Isotropic =    53.7071   Anisotropy =   188.4094

  4  C    Isotropic =    54.9191   Anisotropy =   159.3461

  5  C    Isotropic =    67.9163   Anisotropy =   138.2132

  6  C    Isotropic =    47.8094   Anisotropy =   190.3958

  7  C    Isotropic =    71.0970   Anisotropy =   162.7866

  8  C    Isotropic =    55.1948   Anisotropy =   160.2767

  9  C    Isotropic =   151.3483   Anisotropy =    20.6712

 10  C    Isotropic =   164.8862   Anisotropy =    30.7173

 11  C    Isotropic =   164.8884   Anisotropy =    30.7148

 12  H    Isotropic =    24.7867   Anisotropy =     7.8366

 13  H    Isotropic =    25.3819   Anisotropy =     7.7441

 14  H    Isotropic =    25.1487   Anisotropy =     9.6855

 15  H    Isotropic =    24.7015   Anisotropy =     8.2502

 16  H    Isotropic =    29.5937   Anisotropy =     6.9539

 17  H    Isotropic =    30.9192   Anisotropy =     6.5077

 18  H    Isotropic =    30.9712   Anisotropy =     7.9223

 19  H    Isotropic =    30.9559   Anisotropy =     9.3281

 20  H    Isotropic =    30.9188   Anisotropy =     6.5081

 21  H    Isotropic =    30.9559   Anisotropy =     9.3280

 22  H    Isotropic =    30.9711   Anisotropy =     7.9226

  Exact polarizability: 210.161  -0.043 118.188   0.016   0.006  84.695
 Approx polarizability: 266.372   1.619 202.317   0.022   0.014 119.967

                     1                      2                      3
                     A                      A                      A
 Frequencies --    30.3099                36.8551                41.6355
 Red. masses --     4.9342                 7.1709                 3.2806
 Frc consts  --     0.0027                 0.0057                 0.0034
 IR Inten    --     0.2913                 1.9931                 0.2632

                     4                      5                      6
                     A                      A                      A
 Frequencies --   112.1542               152.6582               167.9745
 Red. masses --     5.2595                 7.1948                 9.3209
 Frc consts  --     0.0390                 0.0988                 0.1550
 IR Inten    --     9.1720                 5.9036                17.8859

                     7                      8                      9
                     A                      A                      A
 Frequencies --   196.1755               229.8245               234.6814
 Red. masses --     4.8742                 2.0787                 1.0690
 Frc consts  --     0.1105                 0.0647                 0.0347
 IR Inten    --    21.7440                 6.0987                 0.6143

                    10                     11                     12
                     A                      A                      A
 Frequencies --   268.2809               315.1846               348.4836
 Red. masses --     1.3671                 2.8029                 4.2169
 Frc consts  --     0.0580                 0.1641                 0.3017
 IR Inten    --     1.4086                 2.0783                 7.9704

                    13                     14                     15
                     A                      A                      A
 Frequencies --   397.8300               449.4742               506.6979
 Red. masses --     2.8546                 4.1745                 4.2961
 Frc consts  --     0.2662                 0.4969                 0.6499
 IR Inten    --     0.0004                34.8850                62.2069

                    16                     17                     18
                     A                      A                      A
 Frequencies --   561.4230               606.2064               651.2342
 Red. masses --     2.9257                 3.6876                 6.9978
 Frc consts  --     0.5433                 0.7984                 1.7486
 IR Inten    --    17.5156                32.5201                 0.1681

                    19                     20                     21
                     A                      A                      A
 Frequencies --   743.5865               764.9668               830.4526
 Red. masses --     3.2253                 4.3382                 1.5687
 Frc consts  --     1.0507                 1.4957                 0.6374
 IR Inten    --     1.7031                 1.9952                18.4905

                    22                     23                     24
                     A                      A                      A
 Frequencies --   866.5557               902.6592               939.5015
 Red. masses --     1.2515                 2.5845                 1.1770
 Frc consts  --     0.5537                 1.2407                 0.6121
 IR Inten    --     0.0136                 0.5482                 0.6997

                    25                     26                     27
                     A                      A                      A
 Frequencies --   962.4289               968.3791               973.6502
 Red. masses --     1.3790                 1.3642                 1.4223
 Frc consts  --     0.7526                 0.7537                 0.7944
 IR Inten    --     0.0468                 0.1864                 0.2056

                    28                     29                     30
                     A                      A                      A
 Frequencies --  1028.4425              1071.5274              1096.1378
 Red. masses --     4.8820                 2.3502                 1.9618
 Frc consts  --     3.0423                 1.5899                 1.3888
 IR Inten    --     4.0965                41.4589                 0.0397

                    31                     32                     33
                     A                      A                      A
 Frequencies --  1131.4168              1135.5336              1185.9953
 Red. masses --     2.2900                 1.6119                 1.8125
 Frc consts  --     1.7271                 1.2246                 1.5021
 IR Inten    --     0.7029                 3.3167                 2.0344

                    34                     35                     36
                     A                      A                      A
 Frequencies --  1232.7899              1247.6430              1300.7940
 Red. masses --     1.2399                 1.8690                 6.3306
 Frc consts  --     1.1103                 1.7141                 6.3112
 IR Inten    --     0.9036                 0.0910                 6.5998

                    37                     38                     39
                     A                      A                      A
 Frequencies --  1340.4061              1363.2549              1393.5621
 Red. masses --     1.4633                 1.3196                 1.5788
 Frc consts  --     1.5490                 1.4450                 1.8064
 IR Inten    --     5.2149                 2.8937                 4.1568

                    40                     41                     42
                     A                      A                      A
 Frequencies --  1424.8532              1435.8792              1447.9426
 Red. masses --     1.2260                 1.7755                 1.3090
 Frc consts  --     1.4665                 2.1568                 1.6170
 IR Inten    --     2.4161                 7.5450                 8.7765

                    43                     44                     45
                     A                      A                      A
 Frequencies --  1517.6622              1520.9205              1532.3444
 Red. masses --     1.0453                 1.0476                 1.0843
 Frc consts  --     1.4185                 1.4277                 1.5001
 IR Inten    --     0.0050                 2.3070                 8.4055

                    46                     47                     48
                     A                      A                      A
 Frequencies --  1534.2467              1543.1290              1597.9887
 Red. masses --     1.2928                 1.4623                 5.1642
 Frc consts  --     1.7929                 2.0516                 7.7696
 IR Inten    --     1.1968                 3.1641                 1.5199

                    49                     50                     51
                     A                      A                      A
 Frequencies --  1645.0963              3030.5288              3042.7057
 Red. masses --     5.3181                 1.0844                 1.0348
 Frc consts  --     8.4799                 5.8678                 5.6446
 IR Inten    --    12.2588                17.4478                26.1116

                    52                     53                     54
                     A                      A                      A
 Frequencies --  3047.1853              3106.4369              3113.0687
 Red. masses --     1.0354                 1.1027                 1.1017
 Frc consts  --     5.6643                 6.2693                 6.2907
 IR Inten    --    33.8768                 0.0185                88.1762

                    55                     56                     57
                     A                      A                      A
 Frequencies --  3118.8883              3120.5731              3137.1752
 Red. masses --     1.1027                 1.1022                 1.0869
 Frc consts  --     6.3200                 6.3240                 6.3025
 IR Inten    --    24.2760                32.9439                 7.0813

                    58                     59                     60
                     A                      A                      A
 Frequencies --  3138.4451              3169.7703              3177.6422
 Red. masses --     1.0876                 1.0924                 1.0917
 Frc consts  --     6.3120                 6.4669                 6.4947
 IR Inten    --    25.7716                38.1108                28.7141

 - Thermochemistry -
 -------------------
 Temperature   298.150 Kelvin.  Pressure   1.00000 Atm.
 Atom     1 has atomic number 35 and mass  78.91834

 Molecular mass:   221.98946 amu.
 Principal axes and moments of inertia in atomic units:
                           1         2         3
     Eigenvalues --   552.46737********************
           X            0.99999  -0.00408   0.00001
           Y            0.00408   0.99999   0.00003
           Z           -0.00001  -0.00003   1.00000
 This molecule is an asymmetric top.
 Rotational symmetry number  1.
 Warning -- assumption of classical behavior for rotation
           may cause significant error
 Rotational temperatures (Kelvin)      0.15678     0.00834     0.00821
 Rotational constants (GHZ):           3.26669     0.17369     0.17107
 Zero-point vibrational energy     461694.2 (Joules/Mol)
                                  110.34757 (Kcal/Mol)
 Warning -- explicit consideration of  17 degrees of freedom as
           vibrations may cause significant error
 Vibrational temperatures:     43.61    53.03    59.90   161.36   219.64
          (Kelvin)            241.68   282.25   330.67   337.65   386.00
                              453.48   501.39   572.39   646.69   729.02
                              807.76   872.19   936.98  1069.85  1100.62
                             1194.83  1246.78  1298.72  1351.73  1384.72
                             1393.28  1400.86  1479.70  1541.69  1577.10
                             1627.85  1633.78  1706.38  1773.71  1795.08
                             1871.55  1928.54  1961.42  2005.02  2050.04
                             2065.91  2083.26  2183.57  2188.26  2204.70
                             2207.44  2220.22  2299.15  2366.92  4360.25
                             4377.77  4384.21  4469.46  4479.01  4487.38
                             4489.80  4513.69  4515.52  4560.59  4571.91

 Zero-point correction=                           0.175850 (Hartree/Particle)
 Thermal correction to Energy=                    0.188124
 Thermal correction to Enthalpy=                  0.189068
 Thermal correction to Gibbs Free Energy=         0.134376
 Sum of electronic and zero-point Energies=          -3121.285148
 Sum of electronic and thermal Energies=             -3121.272875
 Sum of electronic and thermal Enthalpies=           -3121.271931
 Sum of electronic and thermal Free Energies=        -3121.326622

                     E (Thermal)             CV                S
                      KCal/Mol        Cal/Mol-Kelvin    Cal/Mol-Kelvin
 Total                  118.049             43.173            115.108
 Electronic               0.000              0.000              0.000
 Translational            0.889              2.981             42.095
 Rotational               0.889              2.981             32.471
 Vibrational            116.272             37.211             40.542
 Vibration     1          0.594              1.984              5.809
 Vibration     2          0.594              1.982              5.421
 Vibration     3          0.594              1.981              5.180
 Vibration     4          0.607              1.939              3.231
 Vibration     5          0.619              1.900              2.639
 Vibration     6          0.625              1.882              2.458
 Vibration     7          0.636              1.845              2.169
 Vibration     8          0.652              1.795              1.880
 Vibration     9          0.654              1.788              1.843
 Vibration    10          0.673              1.731              1.607
 Vibration    11          0.703              1.645              1.335
 Vibration    12          0.726              1.578              1.173
 Vibration    13          0.764              1.475              0.971
 Vibration    14          0.808              1.362              0.797
 Vibration    15          0.862              1.235              0.642
 Vibration    16          0.917              1.115              0.521
 Vibration    17          0.965              1.019              0.439

 Normal termination of Gaussian 09 at Sun Oct  3 12:09:38 2021.
 Gaussian 09:  AM64L-G09RevA.02 11-Jun-2009

 ----------------------------------------------------------------------
 #p TD(NStates=10, Root=1) b3lyp/6-31G* volume pop=NPA density=current
 Geom=AllCheck Guess=Read
 ----------------------------------------------------------------------

 Br[Mg]c1ccc(cc1)C(C)C_conf_0
 ----------------------------
 Redundant internal coordinates taken from checkpoint file:
 C9H11BrMg_a892_conf_0.chk
 Charge =  0 Multiplicity = 1

                         Standard orientation:
 ---------------------------------------------------------------------
 Center     Atomic      Atomic             Coordinates (Angstroms)
 Number     Number       Type             X           Y           Z
 ---------------------------------------------------------------------
      1         35           0       -4.407089   -0.080310    0.000399
      2         12           0       -2.074678    0.017853   -0.000550
      3          6           0       -0.005529    0.103265   -0.001057
      4          6           0        0.691518    1.328157   -0.000636
      5          6           0        2.087313    1.386650   -0.000158
      6          6           0        2.861861    0.220907   -0.000070
      7          6           0        2.185832   -1.007775   -0.000565
      8          6           0        0.791755   -1.061268   -0.001038
      9          6           0        4.382711    0.294420    0.000487
     10          6           0        4.986624   -0.334684    1.270513
     11          6           0        4.987606   -0.334577   -1.269120
     12          1           0        0.147338    2.272842   -0.000732
     13          1           0        2.584023    2.355633    0.000148
     14          1           0        2.752755   -1.936570   -0.000592
     15          1           0        0.325546   -2.046802   -0.001461
     16          1           0        4.653854    1.359190    0.000636
     17          1           0        4.766650   -1.407437    1.326776
     18          1           0        4.585860    0.135885    2.174932
     19          1           0        6.076940   -0.217778    1.278612
     20          1           0        4.767752   -1.407342   -1.325618
     21          1           0        6.077921   -0.217606   -1.276397
     22          1           0        4.587493    0.136018   -2.173813
 ---------------------------------------------------------------------

 SCF Done:  E(RB3LYP) =  -3121.46099835     A.U. after    1 cycles

 Excitation energies and oscillator strengths:

 Excited State   1:      Singlet-A      4.4539 eV  278.37 nm  f=0.0095  <S**2>=0.000
      56 -> 57         0.70333
 This state for optimization and/or second-order correction.
 Total Energy, E(TD-HF/TD-KS) =  -3121.29732030
 Copying the excited state density for this state as the 1-particle RhoCI density.

 Excited State   2:      Singlet-A      4.7036 eV  263.59 nm  f=0.0000  <S**2>=0.000
      55 -> 57         0.70562

 Excited State   3:      Singlet-A      5.1122 eV  242.53 nm  f=0.0014  <S**2>=0.000
      55 -> 58         0.58915
      56 -> 60         0.37563

 Excited State   4:      Singlet-A      5.2722 eV  235.16 nm  f=0.1884  <S**2>=0.000
      54 -> 57        -0.11573
      55 -> 60        -0.10820
      56 -> 58         0.67333
      56 -> 61         0.12584

 Excited State   5:      Singlet-A      5.3064 eV  233.65 nm  f=0.0000  <S**2>=0.000
      56 -> 59         0.70496

 Excited State   6:      Singlet-A      5.3470 eV  231.88 nm  f=0.5456  <S**2>=0.000
      54 -> 57         0.66777
      56 -> 58         0.13789
      56 -> 61        -0.15380

 Excited State   7:      Singlet-A      5.4129 eV  229.05 nm  f=0.0054  <S**2>=0.000
      53 -> 57         0.56119
      54 -> 58         0.42577

 Excited State   8:      Singlet-A      5.4546 eV  227.30 nm  f=0.0364  <S**2>=0.000
      52 -> 57         0.69852
      54 -> 59         0.10227

 Excited State   9:      Singlet-A      5.5317 eV  224.13 nm  f=0.0604  <S**2>=0.000
      53 -> 57        -0.40235
      54 -> 58         0.52342
      55 -> 59         0.24344

 Excited State  10:      Singlet-A      5.5600 eV  222.99 nm  f=0.0153  <S**2>=0.000
      53 -> 57         0.14442
      54 -> 58        -0.19393
      55 -> 59         0.66301

 The electronic state is 1-A.
 Alpha  occ. eigenvalues -- -482.87836 -61.84065 -56.35797 -56.35659 -56.35655
 Alpha  occ. eigenvalues --  -46.84353 -10.19461 -10.19112 -10.18762 -10.18733
 Alpha  occ. eigenvalues --  -10.18277 -10.18258 -10.17586 -10.17585 -10.16871
 Alpha  occ. eigenvalues --   -8.54977  -6.49723  -6.49326  -6.49316  -3.13155
 Alpha  occ. eigenvalues --   -2.61400  -2.61277  -2.61269  -2.60953  -2.60953
 Alpha  occ. eigenvalues --   -1.87791  -1.87729  -1.87130  -0.84838  -0.79317
 Alpha  occ. eigenvalues --   -0.73672  -0.72480  -0.71631  -0.68261  -0.60928
 Alpha  occ. eigenvalues --   -0.59392  -0.55749  -0.48999  -0.45642  -0.44479
 Alpha  occ. eigenvalues --   -0.42245  -0.41934  -0.41127  -0.40977  -0.38566
 Alpha  occ. eigenvalues --   -0.35491  -0.34445  -0.33762  -0.33571  -0.32537
 Alpha  occ. eigenvalues --   -0.32112  -0.28010  -0.27975  -0.26065  -0.24462
 Alpha  occ. eigenvalues --   -0.23711
 Alpha virt. eigenvalues --   -0.04345  -0.02513  -0.01364   0.00311   0.02164
 Alpha virt. eigenvalues --    0.06861   0.09314   0.11181   0.12133   0.12794
 Alpha virt. eigenvalues --    0.13668   0.14060   0.15085   0.15314   0.16484

 Mulliken atomic charges:
              1
     1  Br  -0.261626
     2  Mg  -0.090521
     3  C    0.030262
     4  C   -0.154636
     5  C   -0.161456
     6  C    0.211261
     7  C   -0.143173
     8  C   -0.167150
     9  C   -0.178100
    10  C   -0.450003
    11  C   -0.450008
    12  H    0.169545
    13  H    0.159857
    14  H    0.161555
    15  H    0.166446
    16  H    0.157133
    17  H    0.160701
    18  H    0.168335
    19  H    0.171278
    20  H    0.160696
    21  H    0.171274
    22  H    0.168330
 Sum of Mulliken atomic charges =   0.00000

 Dipole moment (field-independent basis, Debye):
    X=             15.4078    Y=              0.4063    Z=             -0.0004  Tot=             15.4131
 Quadrupole moment (field-independent basis, Debye-Ang):
   XX=            -99.0875   YY=            -80.3828   ZZ=            -87.1360
   XY=             -0.3015   XZ=              0.0045   YZ=              0.0011

 Summary of Natural Population Analysis:

                                       Natural Population
                Natural  -----------------------------------------------
    Atom  No    Charge         Core      Valence    Rydberg      Total
 -----------------------------------------------------------------------
     Br    1   -0.65658     27.99973     7.64638    0.01046    35.65658
     Mg    2    0.61929      9.99840     1.35300    0.02930    11.38071
      C    3   -0.33530      1.99930     4.30217    0.03383     6.33530
      C    4   -0.18945      1.99917     4.17453    0.01575     6.18945
      C    5   -0.22443      1.99904     4.21197    0.01343     6.22443
      C    6    0.14680      1.99901     3.83676    0.01743     5.85320
      C    7   -0.20249      1.99903     4.19058    0.01288     6.20249
      C    8   -0.22006      1.99918     4.20478    0.01611     6.22006
      C    9   -0.28758      1.99919     4.27538    0.01300     6.28758
      C   10   -0.66869      1.99940     4.66053    0.00876     6.66869
      C   11   -0.66870      1.99940     4.66054    0.00876     6.66870
      H   12    0.24122      0.00000     0.75624    0.00254     0.75878
      H   13    0.24586      0.00000     0.75290    0.00124     0.75414
      H   14    0.24415      0.00000     0.75459    0.00126     0.75585
      H   15    0.24193      0.00000     0.75562    0.00245     0.75807
      H   16    0.25659      0.00000     0.74152    0.00189     0.74341
      H   17    0.23378      0.00000     0.76530    0.00092     0.76622
      H   18    0.24527      0.00000     0.75399    0.00074     0.75473
      H   19    0.24965      0.00000     0.74970    0.00065     0.75035
      H   20    0.23378      0.00000     0.76530    0.00092     0.76622
      H   21    0.24965      0.00000     0.74970    0.00065     0.75035
      H   22    0.24527      0.00000     0.75399    0.00074     0.75473
 =======================================================================
   * Total *   -0.00004     55.99087    55.81546    0.19371   112.00004

 Normal termination of Gaussian 09 at Sun Oct  3 15:27:47 2021.
