 Gaussian 09, Revision A.02,

 -----------------------------------
 #p opt b3lyp/6-31G* scf=(xqc,tight)
 -----------------------------------

 --------------------
 OCCc1ccccc1OC_conf_0
 --------------------
 Symbolic Z-matrix:
 Charge =  0 Multiplicity = 1

 SCF Done:  E(RB3LYP) =  -500.602034936     A.U. after   14 cycles
 SCF Done:  E(RB3LYP) =  -500.604923622     A.U. after   12 cycles
 SCF Done:  E(RB3LYP) =  -500.605744360     A.U. after   12 cycles
 SCF Done:  E(RB3LYP) =  -500.606069440     A.U. after   12 cycles
 SCF Done:  E(RB3LYP) =  -500.606257926     A.U. after   15 cycles
 SCF Done:  E(RB3LYP) =  -500.606356595     A.U. after   11 cycles
 SCF Done:  E(RB3LYP) =  -500.606363923     A.U. after    9 cycles
 SCF Done:  E(RB3LYP) =  -500.606366517     A.U. after    9 cycles
 SCF Done:  E(RB3LYP) =  -500.606366895     A.U. after    8 cycles
 SCF Done:  E(RB3LYP) =  -500.606367028     A.U. after    7 cycles
 Optimization completed.
    -- Stationary point found.
 Normal termination of Gaussian 09 at Thu Sep 30 13:20:08 2021.

 ----------------------------------------------------------------------
 #p freq b3lyp/6-31G* volume NMR pop=NPA density=current Geom=AllCheck
 Guess=Read
 ----------------------------------------------------------------------

 OCCc1ccccc1OC_conf_0
 --------------------
 Redundant internal coordinates taken from checkpoint file:
 C9H12O2_d4d9_conf_0.chk
 Charge =  0 Multiplicity = 1

 SCF Done:  E(RB3LYP) =  -500.606367028     A.U. after    1 cycles

  1  O    Isotropic =   291.8936   Anisotropy =   114.6186

  2  C    Isotropic =   126.8508   Anisotropy =    62.7614

  3  C    Isotropic =   153.9629   Anisotropy =    27.2070

  4  C    Isotropic =    68.8195   Anisotropy =   152.5276

  5  C    Isotropic =    64.7555   Anisotropy =   145.5611

  6  C    Isotropic =    76.0659   Anisotropy =   153.9384

  7  C    Isotropic =    68.8327   Anisotropy =   161.0361

  8  C    Isotropic =    86.8090   Anisotropy =   142.5725

  9  C    Isotropic =    40.0463   Anisotropy =   123.2049

 10  O    Isotropic =   240.2269   Anisotropy =    91.2651

 11  C    Isotropic =   137.4647   Anisotropy =    65.3342

 12  H    Isotropic =    32.1647   Anisotropy =    18.6977

 13  H    Isotropic =    28.1073   Anisotropy =     6.2746

 14  H    Isotropic =    28.6119   Anisotropy =     3.8505

 15  H    Isotropic =    29.7102   Anisotropy =     6.2180

 16  H    Isotropic =    28.8946   Anisotropy =     3.9047

 17  H    Isotropic =    25.1352   Anisotropy =     6.9749

 18  H    Isotropic =    25.4709   Anisotropy =     3.9776

 19  H    Isotropic =    25.1688   Anisotropy =     4.4604

 20  H    Isotropic =    25.8610   Anisotropy =     7.3756

 21  H    Isotropic =    28.6080   Anisotropy =     8.5075

 22  H    Isotropic =    28.6703   Anisotropy =     8.6960

 23  H    Isotropic =    28.2339   Anisotropy =     8.1955

  Exact polarizability: 120.492   4.616 116.674  -8.473   1.732  57.560
 Approx polarizability: 175.832   7.357 179.069 -19.713   2.905  85.797

                     1                      2                      3
                     A                      A                      A
 Frequencies --    57.3035                90.6273                91.3248
 Red. masses --     3.3740                 3.5755                 2.8778
 Frc consts  --     0.0065                 0.0173                 0.0141
 IR Inten    --     1.1955                 4.8514                 4.4350

                     4                      5                      6
                     A                      A                      A
 Frequencies --   105.2943               198.0502               238.7218
 Red. masses --     3.0602                 2.8008                 2.5278
 Frc consts  --     0.0200                 0.0647                 0.0849
 IR Inten    --     3.8651                 2.2198                 4.0557

                     7                      8                      9
                     A                      A                      A
 Frequencies --   266.2582               272.3639               324.2044
 Red. masses --     1.1104                 1.3730                 3.2878
 Frc consts  --     0.0464                 0.0600                 0.2036
 IR Inten    --    97.5237                16.1648                 3.9180

                    10                     11                     12
                     A                      A                      A
 Frequencies --   333.0802               340.3865               479.3131
 Red. masses --     3.4506                 4.3302                 3.3048
 Frc consts  --     0.2256                 0.2956                 0.4473
 IR Inten    --     0.6369                 3.3714                 5.5416

                    13                     14                     15
                     A                      A                      A
 Frequencies --   502.5341               553.8243               572.5966
 Red. masses --     3.8444                 4.0202                 4.7746
 Frc consts  --     0.5720                 0.7265                 0.9223
 IR Inten    --     0.9648                 9.4550                 5.0027

                    16                     17                     18
                     A                      A                      A
 Frequencies --   621.8376               741.3129               766.7843
 Red. masses --     5.7701                 3.3888                 1.3651
 Frc consts  --     1.3146                 1.0972                 0.4729
 IR Inten    --     5.6578                 1.2224                51.6534

                    19                     20                     21
                     A                      A                      A
 Frequencies --   778.3951               812.3012               852.2141
 Red. masses --     3.5719                 1.2537                 2.4777
 Frc consts  --     1.2751                 0.4874                 1.0602
 IR Inten    --     5.4034                 0.4032                 9.3322

                    22                     23                     24
                     A                      A                      A
 Frequencies --   865.2992               933.3079               969.9890
 Red. masses --     1.9384                 1.3701                 1.2414
 Frc consts  --     0.8551                 0.7032                 0.6882
 IR Inten    --     4.6411                 1.6365                 0.0457

                    25                     26                     27
                     A                      A                      A
 Frequencies --  1014.5202              1051.4856              1076.1229
 Red. masses --     2.6937                 2.0665                 5.9271
 Frc consts  --     1.6335                 1.3462                 4.0440
 IR Inten    --    29.8923                 7.4310                95.7215

                    28                     29                     30
                     A                      A                      A
 Frequencies --  1079.5851              1086.0719              1156.9288
 Red. masses --     3.7617                 2.1069                 1.7031
 Frc consts  --     2.5831                 1.4642                 1.3431
 IR Inten    --    31.8113                11.6857                37.5172

                    31                     32                     33
                     A                      A                      A
 Frequencies --  1185.9703              1196.6311              1209.4009
 Red. masses --     1.2709                 1.1002                 1.9182
 Frc consts  --     1.0532                 0.9282                 1.6530
 IR Inten    --     0.7981                 2.8330                11.0070

                    34                     35                     36
                     A                      A                      A
 Frequencies --  1226.3710              1232.0540              1250.7344
 Red. masses --     1.5620                 1.2644                 1.2034
 Frc consts  --     1.3841                 1.1309                 1.1091
 IR Inten    --     0.1165                 1.1211                41.8933

                    37                     38                     39
                     A                      A                      A
 Frequencies --  1289.7866              1318.8376              1331.0117
 Red. masses --     3.5959                 1.3077                 1.4334
 Frc consts  --     3.5245                 1.3401                 1.4962
 IR Inten    --   183.8412                14.5511                 9.4225

                    40                     41                     42
                     A                      A                      A
 Frequencies --  1357.4677              1374.3546              1467.0688
 Red. masses --     1.5631                 3.0958                 1.4410
 Frc consts  --     1.6971                 3.4453                 1.8273
 IR Inten    --    12.9922                15.3499                 8.4594

                    43                     44                     45
                     A                      A                      A
 Frequencies --  1491.2989              1508.4648              1518.6331
 Red. masses --     1.5346                 1.4736                 1.2109
 Frc consts  --     2.0108                 1.9756                 1.6454
 IR Inten    --    32.4592                 0.2050                 3.9524

                    46                     47                     48
                     A                      A                      A
 Frequencies --  1521.9104              1533.6044              1549.4025
 Red. masses --     1.0494                 1.1760                 1.8660
 Frc consts  --     1.4321                 1.6296                 2.6392
 IR Inten    --     5.8762                65.3272                34.4177

                    49                     50                     51
                     A                      A                      A
 Frequencies --  1557.0792              1644.8874              1660.1478
 Red. masses --     1.1074                 6.1803                 5.8357
 Frc consts  --     1.5819                 9.8522                 9.4762
 IR Inten    --     4.6436                 7.4695                27.3985

                    52                     53                     54
                     A                      A                      A
 Frequencies --  2992.2292              3025.2002              3036.8653
 Red. masses --     1.0620                 1.0347                 1.0999
 Frc consts  --     5.6025                 5.5790                 5.9769
 IR Inten    --    54.7578                59.2646                34.9153

                    55                     56                     57
                     A                      A                      A
 Frequencies --  3065.0599              3083.8177              3112.4514
 Red. masses --     1.0597                 1.1066                 1.1049
 Frc consts  --     5.8658                 6.2002                 6.3065
 IR Inten    --    30.5762                43.1989                20.1463

                    58                     59                     60
                     A                      A                      A
 Frequencies --  3155.7294              3176.7086              3188.2412
 Red. masses --     1.0999                 1.0871                 1.0886
 Frc consts  --     6.4534                 6.4633                 6.5197
 IR Inten    --    23.8728                 8.3398                13.6131

                    61                     62                     63
                     A                      A                      A
 Frequencies --  3207.3773              3226.4775              3753.5183
 Red. masses --     1.0952                 1.0918                 1.0664
 Frc consts  --     6.6378                 6.6963                 8.8520
 IR Inten    --    30.1933                11.9383                11.3798

 - Thermochemistry -
 -------------------
 Temperature   298.150 Kelvin.  Pressure   1.00000 Atm.
 Atom     1 has atomic number  8 and mass  15.99491

 Molecular mass:   152.08373 amu.
 Principal axes and moments of inertia in atomic units:
                           1         2         3
     Eigenvalues --  1216.988132184.724093236.85657
           X            0.99982  -0.01901   0.00197
           Y            0.01901   0.99981   0.00357
           Z           -0.00204  -0.00354   0.99999
 This molecule is an asymmetric top.
 Rotational symmetry number  1.
 Warning -- assumption of classical behavior for rotation
           may cause significant error
 Rotational temperatures (Kelvin)      0.07117     0.03965     0.02676
 Rotational constants (GHZ):           1.48296     0.82607     0.55756
 Zero-point vibrational energy     512485.2 (Joules/Mol)
                                  122.48690 (Kcal/Mol)
 Warning -- explicit consideration of  15 degrees of freedom as
           vibrations may cause significant error
 Vibrational temperatures:     82.45   130.39   131.40   151.49   284.95
          (Kelvin)            343.47   383.09   391.87   466.46   479.23
                              489.74   689.62   723.03   796.83   823.84
                              894.68  1066.58  1103.23  1119.94  1168.72
                             1226.14  1244.97  1342.82  1395.60  1459.67
                             1512.85  1548.30  1553.28  1562.61  1664.56
                             1706.34  1721.68  1740.06  1764.47  1772.65
                             1799.53  1855.71  1897.51  1915.03  1953.09
                             1977.39  2110.78  2145.64  2170.34  2184.97
                             2189.69  2206.51  2229.24  2240.29  2366.62
                             2388.58  4305.15  4352.58  4369.37  4409.93
                             4436.92  4478.12  4540.39  4570.57  4587.16
                             4614.69  4642.18  5400.47

 Zero-point correction=                           0.195195 (Hartree/Particle)
 Thermal correction to Energy=                    0.206090
 Thermal correction to Enthalpy=                  0.207035
 Thermal correction to Gibbs Free Energy=         0.158216
 Sum of electronic and zero-point Energies=           -500.411172
 Sum of electronic and thermal Energies=              -500.400277
 Sum of electronic and thermal Enthalpies=            -500.399333
 Sum of electronic and thermal Free Energies=         -500.448151

                     E (Thermal)             CV                S
                      KCal/Mol        Cal/Mol-Kelvin    Cal/Mol-Kelvin
 Total                  129.324             40.512            102.747
 Electronic               0.000              0.000              0.000
 Translational            0.889              2.981             40.968
 Rotational               0.889              2.981             30.532
 Vibrational            127.546             34.550             31.247
 Vibration     1          0.596              1.975              4.548
 Vibration     2          0.602              1.956              3.646
 Vibration     3          0.602              1.955              3.631
 Vibration     4          0.605              1.945              3.354
 Vibration     5          0.637              1.843              2.151
 Vibration     6          0.657              1.781              1.812
 Vibration     7          0.672              1.735              1.620
 Vibration     8          0.675              1.724              1.581
 Vibration     9          0.709              1.627              1.289
 Vibration    10          0.715              1.609              1.245
 Vibration    11          0.720              1.595              1.210
 Vibration    12          0.836              1.296              0.712
 Vibration    13          0.858              1.244              0.652
 Vibration    14          0.909              1.131              0.536
 Vibration    15          0.929              1.091              0.499

 Normal termination of Gaussian 09 at Thu Sep 30 14:00:37 2021.
 Gaussian 09:  AM64L-G09RevA.02 11-Jun-2009

 ----------------------------------------------------------------------
 #p TD(NStates=10, Root=1) b3lyp/6-31G* volume pop=NPA density=current
 Geom=AllCheck Guess=Read
 ----------------------------------------------------------------------

 OCCc1ccccc1OC_conf_0
 --------------------
 Redundant internal coordinates taken from checkpoint file:
 C9H12O2_d4d9_conf_0.chk
 Charge =  0 Multiplicity = 1

                         Standard orientation:
 ---------------------------------------------------------------------
 Center     Atomic      Atomic             Coordinates (Angstroms)
 Number     Number       Type             X           Y           Z
 ---------------------------------------------------------------------
      1          8           0        3.735523   -0.243419    0.134393
      2          6           0        2.380711   -0.297114    0.574260
      3          6           0        1.507320   -0.539145   -0.659192
      4          6           0        0.036034   -0.645576   -0.327592
      5          6           0       -0.597431   -1.885387   -0.229757
      6          6           0       -1.954097   -1.999575    0.087794
      7          6           0       -2.698857   -0.845898    0.311461
      8          6           0       -2.096961    0.412686    0.219863
      9          6           0       -0.737897    0.512292   -0.094168
     10          8           0       -0.065712    1.701823   -0.202327
     11          6           0       -0.792290    2.907593   -0.036112
     12          1           0        4.290352   -0.062095    0.907733
     13          1           0        2.079130    0.642809    1.059105
     14          1           0        2.228937   -1.113618    1.299019
     15          1           0        1.846228   -1.463572   -1.140509
     16          1           0        1.684380    0.281088   -1.362941
     17          1           0       -0.010243   -2.782480   -0.414299
     18          1           0       -2.419285   -2.978852    0.154217
     19          1           0       -3.755543   -0.912330    0.557044
     20          1           0       -2.691153    1.302276    0.395224
     21          1           0       -1.217250    2.989193    0.973328
     22          1           0       -1.600470    2.996987   -0.774067
     23          1           0       -0.072751    3.714110   -0.189724
 ---------------------------------------------------------------------

 SCF Done:  E(RB3LYP) =  -500.606367028     A.U. after    1 cycles

 Excitation energies and oscillator strengths:

 Excited State   1:      Singlet-A      5.1473 eV  240.87 nm  f=0.0363  <S**2>=0.000
      40 -> 42         0.13067
      40 -> 43        -0.31357
      41 -> 42         0.60250
      41 -> 43         0.14358
 This state for optimization and/or second-order correction.
 Total Energy, E(TD-HF/TD-KS) =  -500.417206352
 Copying the excited state density for this state as the 1-particle RhoCI density.

 Excited State   2:      Singlet-A      5.8552 eV  211.75 nm  f=0.0747  <S**2>=0.000
      40 -> 42         0.35372
      41 -> 42        -0.20197
      41 -> 43         0.57241

 Excited State   3:      Singlet-A      6.4294 eV  192.84 nm  f=0.0022  <S**2>=0.000
      39 -> 42         0.69853

 Excited State   4:      Singlet-A      6.7995 eV  182.34 nm  f=0.2376  <S**2>=0.000
      39 -> 43         0.52071
      40 -> 42        -0.39453
      41 -> 43         0.24435

 Excited State   5:      Singlet-A      6.8529 eV  180.92 nm  f=0.4334  <S**2>=0.000
      38 -> 42         0.18126
      39 -> 43        -0.18636
      40 -> 42        -0.14022
      40 -> 43         0.54046
      41 -> 42         0.26775
      41 -> 43         0.17199

 Excited State   6:      Singlet-A      6.8965 eV  179.78 nm  f=0.2711  <S**2>=0.000
      38 -> 42         0.10044
      39 -> 43         0.43866
      40 -> 42         0.40636
      40 -> 43         0.24721
      41 -> 42         0.10178
      41 -> 43        -0.21582

 Excited State   7:      Singlet-A      7.2677 eV  170.60 nm  f=0.0030  <S**2>=0.000
      41 -> 44         0.57638
      41 -> 45         0.36283
      41 -> 46        -0.16951

 Excited State   8:      Singlet-A      7.5253 eV  164.76 nm  f=0.0025  <S**2>=0.000
      41 -> 44        -0.36019
      41 -> 45         0.59069

 Excited State   9:      Singlet-A      7.6013 eV  163.11 nm  f=0.0031  <S**2>=0.000
      37 -> 42         0.65825
      38 -> 42        -0.21291

 Excited State  10:      Singlet-A      7.6751 eV  161.54 nm  f=0.0004  <S**2>=0.000
      39 -> 44         0.66906
      39 -> 45        -0.12814

 The electronic state is 1-A.
 Alpha  occ. eigenvalues --  -19.17720 -19.13368 -10.24266 -10.24146 -10.22113
 Alpha  occ. eigenvalues --  -10.18753 -10.18628 -10.18424 -10.18330 -10.17862
 Alpha  occ. eigenvalues --  -10.17555  -1.06205  -1.00497  -0.84776  -0.77787
 Alpha  occ. eigenvalues --   -0.74515  -0.71703  -0.68931  -0.61840  -0.59275
 Alpha  occ. eigenvalues --   -0.57289  -0.52717  -0.50307  -0.48532  -0.46812
 Alpha  occ. eigenvalues --   -0.46603  -0.44867  -0.43807  -0.41319  -0.40323
 Alpha  occ. eigenvalues --   -0.39613  -0.36767  -0.36186  -0.35692  -0.33846
 Alpha  occ. eigenvalues --   -0.32319  -0.31958  -0.31457  -0.25741  -0.24106
 Alpha  occ. eigenvalues --   -0.21396
 Alpha virt. eigenvalues --    0.00377   0.01662   0.08100   0.09479   0.10632
 Alpha virt. eigenvalues --    0.11519   0.14373   0.15330   0.15688   0.16208
 Alpha virt. eigenvalues --    0.16754   0.17143   0.17374   0.19471   0.20167

 Mulliken atomic charges:
              1
     1  O   -0.619789
     2  C   -0.025601
     3  C   -0.335093
     4  C    0.102329
     5  C   -0.224194
     6  C   -0.104838
     7  C   -0.165865
     8  C   -0.196078
     9  C    0.304910
    10  O   -0.452681
    11  C   -0.226955
    12  H    0.386649
    13  H    0.122592
    14  H    0.118862
    15  H    0.147838
    16  H    0.156479
    17  H    0.115851
    18  H    0.131576
    19  H    0.120352
    20  H    0.121965
    21  H    0.170229
    22  H    0.172635
    23  H    0.178825
 Sum of Mulliken atomic charges =  -0.00000

 Dipole moment (field-independent basis, Debye):
    X=             -1.0645    Y=              2.5019    Z=              1.5889  Tot=              3.1492
 Quadrupole moment (field-independent basis, Debye-Ang):
   XX=            -64.7469   YY=            -55.2323   ZZ=            -66.2283
   XY=             -1.6123   XZ=              5.4638   YZ=              0.3059

 Summary of Natural Population Analysis:

                                       Natural Population
                Natural  -----------------------------------------------
    Atom  No    Charge         Core      Valence    Rydberg      Total
 -----------------------------------------------------------------------
      O    1   -0.75654      1.99984     6.74401    0.01269     8.75654
      C    2   -0.08372      1.99927     4.06833    0.01613     6.08372
      C    3   -0.49537      1.99928     4.48043    0.01566     6.49537
      C    4   -0.09883      1.99899     4.07927    0.02057     6.09883
      C    5   -0.28855      1.99908     4.27095    0.01852     6.28855
      C    6   -0.16420      1.99911     4.14889    0.01620     6.16420
      C    7   -0.28002      1.99914     4.26149    0.01939     6.28002
      C    8   -0.33189      1.99906     4.31534    0.01749     6.33189
      C    9    0.33508      1.99873     3.64381    0.02238     5.66492
      O   10   -0.43890      1.99975     6.42766    0.01149     8.43890
      C   11   -0.32367      1.99942     4.31002    0.01423     6.32367
      H   12    0.46828      0.00000     0.52993    0.00179     0.53172
      H   13    0.19453      0.00000     0.80326    0.00221     0.80547
      H   14    0.19201      0.00000     0.80575    0.00224     0.80799
      H   15    0.24312      0.00000     0.75442    0.00246     0.75688
      H   16    0.25071      0.00000     0.74686    0.00243     0.74929
      H   17    0.22684      0.00000     0.77212    0.00104     0.77316
      H   18    0.23031      0.00000     0.76882    0.00087     0.76969
      H   19    0.22846      0.00000     0.77068    0.00086     0.77154
      H   20    0.22628      0.00000     0.77271    0.00101     0.77372
      H   21    0.21592      0.00000     0.78205    0.00203     0.78408
      H   22    0.21780      0.00000     0.78015    0.00205     0.78220
      H   23    0.23233      0.00000     0.76712    0.00055     0.76767
 =======================================================================
   * Total *    0.00000     21.99166    59.80407    0.20427    82.00000

 Normal termination of Gaussian 09 at Thu Sep 30 16:33:03 2021.
