 Gaussian 09, Revision A.02,

 -----------------------------------
 #p opt b3lyp/6-31G* scf=(xqc,tight)
 -----------------------------------

 ----------------------
 OCCc1ccc(cc1)OC_conf_0
 ----------------------
 Symbolic Z-matrix:
 Charge =  0 Multiplicity = 1

 SCF Done:  E(RB3LYP) =  -500.604057732     A.U. after   14 cycles
 SCF Done:  E(RB3LYP) =  -500.606072175     A.U. after   11 cycles
 SCF Done:  E(RB3LYP) =  -500.606228017     A.U. after   10 cycles
 SCF Done:  E(RB3LYP) =  -500.606238006     A.U. after    9 cycles
 SCF Done:  E(RB3LYP) =  -500.606239975     A.U. after    8 cycles
 SCF Done:  E(RB3LYP) =  -500.606241344     A.U. after    8 cycles
 SCF Done:  E(RB3LYP) =  -500.606243194     A.U. after    9 cycles
 SCF Done:  E(RB3LYP) =  -500.606244905     A.U. after    8 cycles
 SCF Done:  E(RB3LYP) =  -500.606245597     A.U. after    8 cycles
 SCF Done:  E(RB3LYP) =  -500.606245874     A.U. after    7 cycles
 SCF Done:  E(RB3LYP) =  -500.606246213     A.U. after    7 cycles
 Optimization completed.
    -- Stationary point found.
 Normal termination of Gaussian 09 at Tue Sep 28 14:21:14 2021.

 ----------------------------------------------------------------------
 #p freq b3lyp/6-31G* volume NMR pop=NPA density=current Geom=AllCheck
 Guess=Read
 ----------------------------------------------------------------------

 OCCc1ccc(cc1)OC_conf_0
 ----------------------
 Redundant internal coordinates taken from checkpoint file:
 C9H12O2_df4c_conf_0.chk
 Charge =  0 Multiplicity = 1

 SCF Done:  E(RB3LYP) =  -500.606246213     A.U. after    1 cycles

  1  O    Isotropic =   289.7087   Anisotropy =   110.6924

  2  C    Isotropic =   123.2937   Anisotropy =    65.3637

  3  C    Isotropic =   150.6305   Anisotropy =    34.0051

  4  C    Isotropic =    66.6093   Anisotropy =   168.1738

  5  C    Isotropic =    65.9514   Anisotropy =   148.9098

  6  C    Isotropic =    86.6461   Anisotropy =   142.1949

  7  C    Isotropic =    40.2437   Anisotropy =   126.9203

  8  C    Isotropic =    78.3834   Anisotropy =   134.5546

  9  C    Isotropic =    65.8469   Anisotropy =   150.8270

 10  O    Isotropic =   239.5284   Anisotropy =    76.8010

 11  C    Isotropic =   137.6025   Anisotropy =    64.8275

 12  H    Isotropic =    32.0302   Anisotropy =    18.5306

 13  H    Isotropic =    28.4822   Anisotropy =     4.5553

 14  H    Isotropic =    28.4498   Anisotropy =     4.6803

 15  H    Isotropic =    29.3954   Anisotropy =     5.1141

 16  H    Isotropic =    29.4543   Anisotropy =     4.9956

 17  H    Isotropic =    25.1996   Anisotropy =     7.1232

 18  H    Isotropic =    25.9012   Anisotropy =     7.2330

 19  H    Isotropic =    25.5744   Anisotropy =     5.7595

 20  H    Isotropic =    25.1816   Anisotropy =     6.8395

 21  H    Isotropic =    28.3451   Anisotropy =     8.0336

 22  H    Isotropic =    28.6830   Anisotropy =     8.0326

 23  H    Isotropic =    28.6992   Anisotropy =     7.9572

  Exact polarizability: 144.737  -2.851  96.931   7.015   2.459  58.198
 Approx polarizability: 193.532  -0.516 164.707  15.897   6.376  84.791

                     1                      2                      3
                     A                      A                      A
 Frequencies --    36.0222                62.8649                96.6544
 Red. masses --     2.9317                 3.9518                 2.7866
 Frc consts  --     0.0022                 0.0092                 0.0153
 IR Inten    --     1.5015                 0.8489                 6.6128

                     4                      5                      6
                     A                      A                      A
 Frequencies --   105.7725               197.3811               230.2558
 Red. masses --     3.9291                 2.7563                 2.9403
 Frc consts  --     0.0259                 0.0633                 0.0918
 IR Inten    --     3.9698                 0.5400                 2.4511

                     7                      8                      9
                     A                      A                      A
 Frequencies --   261.8281               272.7149               313.7545
 Red. masses --     1.2757                 1.0767                 5.5272
 Frc consts  --     0.0515                 0.0472                 0.3206
 IR Inten    --     0.2713               118.4560                 7.1447

                    10                     11                     12
                     A                      A                      A
 Frequencies --   353.1265               390.3299               428.0988
 Red. masses --     2.8115                 4.5885                 3.1639
 Frc consts  --     0.2066                 0.4119                 0.3416
 IR Inten    --     0.3755                 6.2629                 0.1293

                    13                     14                     15
                     A                      A                      A
 Frequencies --   468.9665               535.4237               572.8316
 Red. masses --     4.2915                 2.8933                 3.5772
 Frc consts  --     0.5561                 0.4887                 0.6916
 IR Inten    --     2.7643                14.4435                17.5589

                    16                     17                     18
                     A                      A                      A
 Frequencies --   654.5292               726.7679               771.4840
 Red. masses --     6.7243                 3.9695                 4.2911
 Frc consts  --     1.6973                 1.2353                 1.5048
 IR Inten    --     0.5043                 0.8218                 2.9160

                    19                     20                     21
                     A                      A                      A
 Frequencies --   808.9241               826.6569               842.3394
 Red. masses --     1.1558                 1.3434                 1.8360
 Frc consts  --     0.4456                 0.5409                 0.7676
 IR Inten    --     0.7589                11.0311                26.1163

                    22                     23                     24
                     A                      A                      A
 Frequencies --   861.1703               941.9887               959.7431
 Red. masses --     3.3895                 1.3278                 1.3101
 Frc consts  --     1.4810                 0.6942                 0.7110
 IR Inten    --    19.9851                 0.0178                 0.1893

                    25                     26                     27
                     A                      A                      A
 Frequencies --  1015.0331              1032.8202              1062.0790
 Red. masses --     2.6176                 2.7560                 1.5319
 Frc consts  --     1.5890                 1.7322                 1.0181
 IR Inten    --    36.3535                 0.5287                 3.1355

                    28                     29                     30
                     A                      A                      A
 Frequencies --  1079.6444              1081.3700              1148.2487
 Red. masses --     5.9556                 5.6240                 1.2852
 Frc consts  --     4.0901                 3.8748                 0.9984
 IR Inten    --    99.0028                56.2112                10.5029

                    31                     32                     33
                     A                      A                      A
 Frequencies --  1185.6197              1210.7083              1218.8918
 Red. masses --     1.2709                 1.1634                 1.3904
 Frc consts  --     1.0525                 1.0047                 1.2171
 IR Inten    --     0.7360                17.9821                 9.1734

                    34                     35                     36
                     A                      A                      A
 Frequencies --  1226.4089              1234.5881              1251.4521
 Red. masses --     1.3050                 2.1028                 1.2562
 Frc consts  --     1.1565                 1.8884                 1.1592
 IR Inten    --     0.2494                 1.7441                48.6261

                    37                     38                     39
                     A                      A                      A
 Frequencies --  1297.1372              1320.4430              1348.4488
 Red. masses --     4.4054                 1.1881                 1.5425
 Frc consts  --     4.3672                 1.2205                 1.6525
 IR Inten    --   247.1773                 5.6856                10.2040

                    40                     41                     42
                     A                      A                      A
 Frequencies --  1355.1012              1371.1934              1468.0287
 Red. masses --     1.5684                 2.8659                 2.6356
 Frc consts  --     1.6969                 3.1747                 3.3466
 IR Inten    --    21.6102                22.2016                 0.8285

                    43                     44                     45
                     A                      A                      A
 Frequencies --  1469.8486              1500.5250              1520.9818
 Red. masses --     1.5133                 1.1950                 1.0481
 Frc consts  --     1.9263                 1.5853                 1.4286
 IR Inten    --    10.7369                16.7644                 5.1790

                    46                     47                     48
                     A                      A                      A
 Frequencies --  1523.4534              1535.2251              1556.1129
 Red. masses --     1.0928                 1.0629                 1.0888
 Frc consts  --     1.4943                 1.4761                 1.5533
 IR Inten    --     2.1856                41.8488                 6.2142

                    49                     50                     51
                     A                      A                      A
 Frequencies --  1567.5694              1633.8681              1676.0961
 Red. masses --     2.4430                 6.4690                 5.7954
 Frc consts  --     3.5370                10.1747                 9.5924
 IR Inten    --   102.8567                10.7643                50.7541

                    52                     53                     54
                     A                      A                      A
 Frequencies --  2986.0768              3014.5584              3022.9498
 Red. masses --     1.0546                 1.1082                 1.0349
 Frc consts  --     5.5402                 5.9334                 5.5722
 IR Inten    --    51.7116                48.2065                57.8649

                    55                     56                     57
                     A                      A                      A
 Frequencies --  3054.9091              3080.5980              3098.5525
 Red. masses --     1.0594                 1.1066                 1.1054
 Frc consts  --     5.8250                 6.1875                 6.2531
 IR Inten    --    33.5392                46.1956                25.6388

                    58                     59                     60
                     A                      A                      A
 Frequencies --  3155.3945              3176.1025              3177.4767
 Red. masses --     1.0994                 1.0892                 1.0887
 Frc consts  --     6.4495                 6.4736                 6.4760
 IR Inten    --    29.0044                17.0336                16.4343

                    61                     62                     63
                     A                      A                      A
 Frequencies --  3212.8460              3224.0347              3753.2211
 Red. masses --     1.0929                 1.0910                 1.0664
 Frc consts  --     6.6470                 6.6813                 8.8506
 IR Inten    --     8.5973                12.5048                12.5915

 - Thermochemistry -
 -------------------
 Temperature   298.150 Kelvin.  Pressure   1.00000 Atm.
 Atom     1 has atomic number  8 and mass  15.99491

 Molecular mass:   152.08373 amu.
 Principal axes and moments of inertia in atomic units:
                           1         2         3
     Eigenvalues --   485.099894006.643674277.72775
           X            0.99995  -0.01005  -0.00142
           Y            0.01005   0.99995  -0.00252
           Z            0.00145   0.00251   1.00000
 This molecule is an asymmetric top.
 Rotational symmetry number  1.
 Warning -- assumption of classical behavior for rotation
           may cause significant error
 Rotational temperatures (Kelvin)      0.17855     0.02162     0.02025
 Rotational constants (GHZ):           3.72035     0.45044     0.42189
 Zero-point vibrational energy     511805.8 (Joules/Mol)
                                  122.32452 (Kcal/Mol)
 Warning -- explicit consideration of  15 degrees of freedom as
           vibrations may cause significant error
 Vibrational temperatures:     51.83    90.45   139.06   152.18   283.99
          (Kelvin)            331.29   376.71   392.38   451.42   508.07
                              561.60   615.94   674.74   770.35   824.18
                              941.72  1045.66  1109.99  1163.86  1189.37
                             1211.94  1239.03  1355.31  1380.85  1460.40
                             1486.00  1528.09  1553.37  1555.85  1652.07
                             1705.84  1741.94  1753.71  1764.53  1776.29
                             1800.56  1866.29  1899.82  1940.11  1949.69
                             1972.84  2112.16  2114.78  2158.92  2188.35
                             2191.91  2208.84  2238.90  2255.38  2350.77
                             2411.53  4296.29  4337.27  4349.35  4395.33
                             4432.29  4458.12  4539.90  4569.70  4571.67
                             4622.56  4638.66  5400.04

 Zero-point correction=                           0.194937 (Hartree/Particle)
 Thermal correction to Energy=                    0.205938
 Thermal correction to Enthalpy=                  0.206882
 Thermal correction to Gibbs Free Energy=         0.157326
 Sum of electronic and zero-point Energies=           -500.411310
 Sum of electronic and thermal Energies=              -500.400308
 Sum of electronic and thermal Enthalpies=            -500.399364
 Sum of electronic and thermal Free Energies=         -500.448920

                     E (Thermal)             CV                S
                      KCal/Mol        Cal/Mol-Kelvin    Cal/Mol-Kelvin
 Total                  129.228             40.573            104.299
 Electronic               0.000              0.000              0.000
 Translational            0.889              2.981             40.968
 Rotational               0.889              2.981             30.498
 Vibrational            127.451             34.612             32.834
 Vibration     1          0.594              1.982              5.467
 Vibration     2          0.597              1.972              4.365
 Vibration     3          0.603              1.952              3.521
 Vibration     4          0.605              1.945              3.345
 Vibration     5          0.637              1.844              2.157
 Vibration     6          0.652              1.795              1.877
 Vibration     7          0.669              1.743              1.650
 Vibration     8          0.676              1.724              1.579
 Vibration     9          0.702              1.647              1.342
 Vibration    10          0.729              1.569              1.152
 Vibration    11          0.758              1.491              0.999
 Vibration    12          0.790              1.409              0.865
 Vibration    13          0.826              1.319              0.740
 Vibration    14          0.890              1.172              0.575
 Vibration    15          0.929              1.090              0.499

 Optimization completed.
    -- Stationary point found.
 Normal termination of Gaussian 09 at Tue Sep 28 14:27:45 2021.
 Gaussian 09:  AM64L-G09RevA.02 11-Jun-2009

 ----------------------------------------------------------------------
 #p TD(NStates=10, Root=1) b3lyp/6-31G* volume pop=NPA density=current
 Geom=AllCheck Guess=Read
 ----------------------------------------------------------------------

 OCCc1ccc(cc1)OC_conf_0
 ----------------------
 Redundant internal coordinates taken from checkpoint file:
 C9H12O2_df4c_conf_0.chk
 Charge =  0 Multiplicity = 1

                         Standard orientation:
 ---------------------------------------------------------------------
 Center     Atomic      Atomic             Coordinates (Angstroms)
 Number     Number       Type             X           Y           Z
 ---------------------------------------------------------------------
      1          8           0       -4.514951   -0.225789    0.328614
      2          6           0       -3.130331   -0.132019    0.646310
      3          6           0       -2.353932   -0.047463   -0.669925
      4          6           0       -0.860716    0.061461   -0.453788
      5          6           0       -0.048060   -1.074242   -0.408154
      6          6           0        1.327719   -0.989916   -0.172833
      7          6           0        1.917657    0.262963    0.024628
      8          6           0        1.119415    1.415146   -0.019257
      9          6           0       -0.245324    1.308434   -0.254835
     10          8           0        3.248315    0.470720    0.259452
     11          6           0        4.101909   -0.659570    0.314003
     12          1           0       -5.008476   -0.276973    1.160922
     13          1           0       -2.788320   -1.009655    1.218863
     14          1           0       -2.917294    0.760208    1.257436
     15          1           0       -2.727931    0.818754   -1.229104
     16          1           0       -2.594231   -0.936928   -1.264365
     17          1           0       -0.492404   -2.054918   -0.565908
     18          1           0        1.920484   -1.897518   -0.152351
     19          1           0        1.593533    2.380606    0.128727
     20          1           0       -0.848114    2.213516   -0.292074
     21          1           0        5.102582   -0.270794    0.512330
     22          1           0        4.109280   -1.208350   -0.637454
     23          1           0        3.813966   -1.346158    1.121560
 ---------------------------------------------------------------------

 SCF Done:  E(RB3LYP) =  -500.606246213     A.U. after    1 cycles

 Excitation energies and oscillator strengths:

 Excited State   1:      Singlet-A      5.0880 eV  243.68 nm  f=0.0277  <S**2>=0.000
      40 -> 43        -0.30054
      41 -> 42         0.63167
 This state for optimization and/or second-order correction.
 Total Energy, E(TD-HF/TD-KS) =  -500.419264566
 Copying the excited state density for this state as the 1-particle RhoCI density.

 Excited State   2:      Singlet-A      5.8320 eV  212.59 nm  f=0.1870  <S**2>=0.000
      40 -> 42         0.30014
      41 -> 43         0.62905

 Excited State   3:      Singlet-A      6.6116 eV  187.53 nm  f=0.0732  <S**2>=0.000
      39 -> 42         0.66248
      40 -> 42         0.22264

 Excited State   4:      Singlet-A      6.8325 eV  181.46 nm  f=0.0920  <S**2>=0.000
      38 -> 42         0.14133
      39 -> 43         0.44913
      40 -> 43         0.47542
      41 -> 42         0.19537

 Excited State   5:      Singlet-A      6.9418 eV  178.60 nm  f=0.5383  <S**2>=0.000
      39 -> 42        -0.19964
      39 -> 43         0.29770
      40 -> 42         0.50041
      40 -> 43        -0.13087
      41 -> 42        -0.10350
      41 -> 43        -0.25152

 Excited State   6:      Singlet-A      6.9870 eV  177.45 nm  f=0.2543  <S**2>=0.000
      38 -> 42        -0.17685
      39 -> 42         0.12948
      39 -> 43         0.44602
      40 -> 42        -0.29155
      40 -> 43        -0.33401
      41 -> 42        -0.16817
      41 -> 43         0.11091

 Excited State   7:      Singlet-A      7.2411 eV  171.22 nm  f=0.0288  <S**2>=0.000
      41 -> 44         0.39038
      41 -> 45         0.56864

 Excited State   8:      Singlet-A      7.3370 eV  168.98 nm  f=0.0003  <S**2>=0.000
      41 -> 44         0.57996
      41 -> 45        -0.39474

 Excited State   9:      Singlet-A      7.6017 eV  163.10 nm  f=0.0012  <S**2>=0.000
      37 -> 42         0.69236

 Excited State  10:      Singlet-A      7.7165 eV  160.67 nm  f=0.0005  <S**2>=0.000
      39 -> 44         0.65747
      40 -> 44         0.22188

 The electronic state is 1-A.
 Alpha  occ. eigenvalues --  -19.17484 -19.13873 -10.24270 -10.23978 -10.22730
 Alpha  occ. eigenvalues --  -10.18627 -10.18568 -10.18497 -10.18455 -10.18062
 Alpha  occ. eigenvalues --  -10.18015  -1.06047  -1.01044  -0.84914  -0.77856
 Alpha  occ. eigenvalues --   -0.74427  -0.72618  -0.68390  -0.61410  -0.60618
 Alpha  occ. eigenvalues --   -0.56991  -0.53006  -0.50984  -0.48603  -0.46613
 Alpha  occ. eigenvalues --   -0.45412  -0.45228  -0.43648  -0.41665  -0.41070
 Alpha  occ. eigenvalues --   -0.40698  -0.36947  -0.36602  -0.34865  -0.34319
 Alpha  occ. eigenvalues --   -0.32997  -0.32119  -0.30679  -0.26353  -0.24607
 Alpha  occ. eigenvalues --   -0.21141
 Alpha virt. eigenvalues --    0.00256   0.01577   0.07828   0.09210   0.10511
 Alpha virt. eigenvalues --    0.12774   0.13321   0.14358   0.15367   0.15597
 Alpha virt. eigenvalues --    0.16733   0.17002   0.17603   0.18917   0.19726

 Mulliken atomic charges:
              1
     1  O   -0.617760
     2  C   -0.022518
     3  C   -0.353297
     4  C    0.181164
     5  C   -0.220464
     6  C   -0.197531
     7  C    0.351616
     8  C   -0.188717
     9  C   -0.212186
    10  O   -0.446984
    11  C   -0.226400
    12  H    0.391744
    13  H    0.125224
    14  H    0.127181
    15  H    0.158670
    16  H    0.156096
    17  H    0.114934
    18  H    0.119555
    19  H    0.124653
    20  H    0.114470
    21  H    0.177516
    22  H    0.171961
    23  H    0.171071
 Sum of Mulliken atomic charges =  -0.00000

 Dipole moment (field-independent basis, Debye):
    X=              1.9896    Y=             -1.4119    Z=              1.6750  Tot=              2.9593
 Quadrupole moment (field-independent basis, Debye-Ang):
   XX=            -54.0285   YY=            -63.4965   ZZ=            -65.3520
   XY=             -5.3157   XZ=             -6.0121   YZ=             -0.5211

 Summary of Natural Population Analysis:

                                       Natural Population
                Natural  -----------------------------------------------
    Atom  No    Charge         Core      Valence    Rydberg      Total
 -----------------------------------------------------------------------
      O    1   -0.75404      1.99983     6.74170    0.01251     8.75404
      C    2   -0.08079      1.99926     4.06572    0.01581     6.08079
      C    3   -0.49984      1.99926     4.48567    0.01491     6.49984
      C    4    0.03450      1.99903     3.94868    0.01779     5.96550
      C    5   -0.28312      1.99907     4.26483    0.01922     6.28312
      C    6   -0.33602      1.99905     4.31939    0.01758     6.33602
      C    7    0.32954      1.99879     3.64856    0.02311     5.67046
      C    8   -0.31406      1.99906     4.29419    0.02081     6.31406
      C    9   -0.28687      1.99906     4.26944    0.01836     6.28687
      O   10   -0.42756      1.99975     6.41612    0.01169     8.42756
      C   11   -0.32524      1.99942     4.31171    0.01411     6.32524
      H   12    0.47231      0.00000     0.52617    0.00152     0.52769
      H   13    0.19599      0.00000     0.80168    0.00233     0.80401
      H   14    0.19705      0.00000     0.80063    0.00232     0.80295
      H   15    0.25021      0.00000     0.74720    0.00259     0.74979
      H   16    0.24785      0.00000     0.74968    0.00248     0.75215
      H   17    0.22582      0.00000     0.77312    0.00106     0.77418
      H   18    0.22633      0.00000     0.77267    0.00100     0.77367
      H   19    0.23608      0.00000     0.76267    0.00126     0.76392
      H   20    0.22649      0.00000     0.77249    0.00101     0.77351
      H   21    0.23138      0.00000     0.76808    0.00054     0.76862
      H   22    0.21723      0.00000     0.78076    0.00202     0.78277
      H   23    0.21678      0.00000     0.78115    0.00207     0.78322
 =======================================================================
   * Total *    0.00000     21.99159    59.80231    0.20610    82.00000

 Normal termination of Gaussian 09 at Tue Sep 28 14:38:42 2021.
