 Gaussian 09, Revision A.02,

 -----------------------------------
 #p opt b3lyp/6-31G* scf=(xqc,tight)
 -----------------------------------

 ----------------------
 OCCOc1ccc(cc1)C_conf_0
 ----------------------
 Symbolic Z-matrix:
 Charge =  0 Multiplicity = 1

 SCF Done:  E(RB3LYP) =  -500.604859133     A.U. after   14 cycles
 SCF Done:  E(RB3LYP) =  -500.608089467     A.U. after   12 cycles
 SCF Done:  E(RB3LYP) =  -500.608568910     A.U. after   11 cycles
 SCF Done:  E(RB3LYP) =  -500.609040804     A.U. after   15 cycles
 SCF Done:  E(RB3LYP) =  -500.609212545     A.U. after   11 cycles
 SCF Done:  E(RB3LYP) =  -500.609300916     A.U. after   11 cycles
 SCF Done:  E(RB3LYP) =  -500.609313765     A.U. after   10 cycles
 SCF Done:  E(RB3LYP) =  -500.609316955     A.U. after    8 cycles
 SCF Done:  E(RB3LYP) =  -500.609320344     A.U. after    9 cycles
 SCF Done:  E(RB3LYP) =  -500.609325359     A.U. after   10 cycles
 SCF Done:  E(RB3LYP) =  -500.609365349     A.U. after   11 cycles
 SCF Done:  E(RB3LYP) =  -500.609369300     A.U. after   10 cycles
 SCF Done:  E(RB3LYP) =  -500.609373566     A.U. after   10 cycles
 SCF Done:  E(RB3LYP) =  -500.609375887     A.U. after    9 cycles
 SCF Done:  E(RB3LYP) =  -500.609377655     A.U. after    8 cycles
 SCF Done:  E(RB3LYP) =  -500.609378077     A.U. after    8 cycles
 SCF Done:  E(RB3LYP) =  -500.609378093     A.U. after    7 cycles
 SCF Done:  E(RB3LYP) =  -500.609378094     A.U. after    6 cycles
 Optimization completed on the basis of negligible forces.
    -- Stationary point found.
 Normal termination of Gaussian 09 at Thu Sep 30 13:15:32 2021.

 ----------------------------------------------------------------------
 #p freq b3lyp/6-31G* volume NMR pop=NPA density=current Geom=AllCheck
 Guess=Read
 ----------------------------------------------------------------------

 OCCOc1ccc(cc1)C_conf_0
 ----------------------
 Redundant internal coordinates taken from checkpoint file:
 C9H12O2_8950_conf_0.chk
 Charge =  0 Multiplicity = 1

 SCF Done:  E(RB3LYP) =  -500.609378094     A.U. after    1 cycles

  1  O    Isotropic =   306.7425   Anisotropy =   102.6403

  2  C    Isotropic =   128.1873   Anisotropy =    62.0156

  3  C    Isotropic =   124.9542   Anisotropy =    58.0795

  4  O    Isotropic =   230.9846   Anisotropy =    57.2287

  5  C    Isotropic =    41.3335   Anisotropy =   123.7922

  6  C    Isotropic =    86.5191   Anisotropy =   140.5440

  7  C    Isotropic =    66.2392   Anisotropy =   142.9051

  8  C    Isotropic =    67.2475   Anisotropy =   167.2249

  9  C    Isotropic =    66.6391   Anisotropy =   152.9448

 10  C    Isotropic =    78.6852   Anisotropy =   134.1126

 11  C    Isotropic =   168.3350   Anisotropy =    34.4074

 12  H    Isotropic =    32.1278   Anisotropy =    18.7188

 13  H    Isotropic =    28.0808   Anisotropy =     4.6670

 14  H    Isotropic =    28.0803   Anisotropy =     4.6680

 15  H    Isotropic =    28.2773   Anisotropy =     5.0221

 16  H    Isotropic =    28.2777   Anisotropy =     5.0205

 17  H    Isotropic =    25.8617   Anisotropy =     7.7845

 18  H    Isotropic =    25.2913   Anisotropy =     6.5272

 19  H    Isotropic =    25.1657   Anisotropy =     6.5672

 20  H    Isotropic =    25.5678   Anisotropy =     6.3282

 21  H    Isotropic =    30.4779   Anisotropy =     6.9403

 22  H    Isotropic =    29.8530   Anisotropy =     8.0970

 23  H    Isotropic =    29.8350   Anisotropy =     8.1679

  Exact polarizability: 147.844   0.608  99.540  -0.044  -0.001  53.214
 Approx polarizability: 192.925   0.848 168.203  -0.048   0.007  77.908

                     1                      2                      3
                     A                      A                      A
 Frequencies --    16.7012                39.5123                90.9581
 Red. masses --     1.0495                 4.6905                 2.1590
 Frc consts  --     0.0002                 0.0043                 0.0105
 IR Inten    --     0.0888                 0.4065                10.7539

                     4                      5                      6
                     A                      A                      A
 Frequencies --    99.7931               132.5897               163.4662
 Red. masses --     4.8751                 2.7160                 3.9214
 Frc consts  --     0.0286                 0.0281                 0.0617
 IR Inten    --     1.0752                 1.9132                 6.5728

                     7                      8                      9
                     A                      A                      A
 Frequencies --   251.2877               276.2624               295.5831
 Red. masses --     1.0837                 3.4037                 5.0336
 Frc consts  --     0.0403                 0.1531                 0.2591
 IR Inten    --   125.4855                 3.5014                 0.1171

                    10                     11                     12
                     A                      A                      A
 Frequencies --   337.9854               366.9795               425.3293
 Red. masses --     4.3061                 3.1674                 3.1598
 Frc consts  --     0.2898                 0.2513                 0.3368
 IR Inten    --     2.2305                 7.6299                 0.0237

                    13                     14                     15
                     A                      A                      A
 Frequencies --   509.0854               524.1274               541.1299
 Red. masses --     5.0786                 2.4724                 5.0205
 Frc consts  --     0.7755                 0.4002                 0.8662
 IR Inten    --     6.7442                 6.8775                 6.6572

                    16                     17                     18
                     A                      A                      A
 Frequencies --   655.4119               713.9328               763.4043
 Red. masses --     6.7765                 3.3462                 4.9217
 Frc consts  --     1.7151                 1.0049                 1.6900
 IR Inten    --     0.5964                 0.0374                 6.6916

                    19                     20                     21
                     A                      A                      A
 Frequencies --   817.7500               838.1818               857.4206
 Red. masses --     1.3558                 1.4072                 1.1157
 Frc consts  --     0.5342                 0.5825                 0.4833
 IR Inten    --    17.6428                22.6195                 6.2978

                    22                     23                     24
                     A                      A                      A
 Frequencies --   858.7569               937.5919               958.2903
 Red. masses --     6.3105                 1.2844                 1.2861
 Frc consts  --     2.7419                 0.6652                 0.6959
 IR Inten    --     6.3229                 0.3303                 0.3409

                    25                     26                     27
                     A                      A                      A
 Frequencies --  1014.4512              1035.8234              1047.8971
 Red. masses --     1.4713                 2.5619                 2.3346
 Frc consts  --     0.8921                 1.6195                 1.5104
 IR Inten    --     7.7803                 0.9196                47.7343

                    28                     29                     30
                     A                      A                      A
 Frequencies --  1076.3839              1086.8217              1096.5278
 Red. masses --     1.4881                 5.3082                 5.2077
 Frc consts  --     1.0158                 3.6942                 3.6892
 IR Inten    --     4.0478                95.4499                49.1359

                    31                     32                     33
                     A                      A                      A
 Frequencies --  1148.7211              1174.7943              1212.2616
 Red. masses --     1.2646                 1.5190                 1.1605
 Frc consts  --     0.9832                 1.2351                 1.0048
 IR Inten    --     9.5696                 0.0096                18.2550

                    34                     35                     36
                     A                      A                      A
 Frequencies --  1238.2082              1240.3087              1264.5606
 Red. masses --     1.1359                 3.0389                 1.2263
 Frc consts  --     1.0261                 2.7544                 1.1554
 IR Inten    --     2.7452                 0.0730                61.3811

                    37                     38                     39
                     A                      A                      A
 Frequencies --  1294.0530              1316.3713              1348.5777
 Red. masses --     4.8892                 1.1110                 1.4844
 Frc consts  --     4.8238                 1.1343                 1.5906
 IR Inten    --   311.3404                 0.5041                17.2700

                    40                     41                     42
                     A                      A                      A
 Frequencies --  1357.6796              1400.2775              1443.4412
 Red. masses --     4.3628                 1.3509                 1.2451
 Frc consts  --     4.7381                 1.5607                 1.5284
 IR Inten    --    32.2173                22.8551                 0.1716

                    43                     44                     45
                     A                      A                      A
 Frequencies --  1463.6359              1493.8518              1515.0499
 Red. masses --     2.7661                 1.5747                 1.0444
 Frc consts  --     3.4912                 2.0705                 1.4125
 IR Inten    --     1.5276                 1.5377                 4.8828

                    46                     47                     48
                     A                      A                      A
 Frequencies --  1527.2511              1547.2052              1561.9087
 Red. masses --     1.1042                 1.1790                 1.1904
 Frc consts  --     1.5174                 1.6628                 1.7110
 IR Inten    --     5.8157                50.0617                50.0955

                    49                     50                     51
                     A                      A                      A
 Frequencies --  1569.0979              1636.4270              1678.0406
 Red. masses --     1.8633                 6.0155                 5.7981
 Frc consts  --     2.7030                 9.4910                 9.6192
 IR Inten    --    67.4713                18.6320                42.6233

                    52                     53                     54
                     A                      A                      A
 Frequencies --  3007.6179              3027.9451              3038.1900
 Red. masses --     1.0550                 1.0547                 1.1080
 Frc consts  --     5.6228                 5.6971                 6.0258
 IR Inten    --    39.2871                40.4908                26.0856

                    55                     56                     57
                     A                      A                      A
 Frequencies --  3038.7139              3077.2915              3087.9864
 Red. masses --     1.0377                 1.1112                 1.1010
 Frc consts  --     5.6453                 6.1997                 6.1855
 IR Inten    --    43.4015                72.1366                25.2915

                    58                     59                     60
                     A                      A                      A
 Frequencies --  3120.3483              3175.9121              3178.4640
 Red. masses --     1.1004                 1.0888                 1.0891
 Frc consts  --     6.3123                 6.4704                 6.4825
 IR Inten    --    18.3813                19.3264                21.8076

                    61                     62                     63
                     A                      A                      A
 Frequencies --  3211.7366              3223.1056              3768.9210
 Red. masses --     1.0929                 1.0915                 1.0666
 Frc consts  --     6.6425                 6.6808                 8.9267
 IR Inten    --     9.3599                11.3511                22.9029

 - Thermochemistry -
 -------------------
 Temperature   298.150 Kelvin.  Pressure   1.00000 Atm.
 Atom     1 has atomic number  8 and mass  15.99491

 Molecular mass:   152.08373 amu.
 Principal axes and moments of inertia in atomic units:
                           1         2         3
     Eigenvalues --   426.783764197.112094589.90351
           X            0.99998   0.00598  -0.00002
           Y           -0.00598   0.99998  -0.00001
           Z            0.00002   0.00001   1.00000
 This molecule is an asymmetric top.
 Rotational symmetry number  1.
 Rotational temperatures (Kelvin)      0.20295     0.02064     0.01887
 Rotational constants (GHZ):           4.22870     0.43000     0.39320
 Zero-point vibrational energy     509713.2 (Joules/Mol)
                                  121.82438 (Kcal/Mol)
 Warning -- explicit consideration of  15 degrees of freedom as
           vibrations may cause significant error
 Vibrational temperatures:     24.03    56.85   130.87   143.58   190.77
          (Kelvin)            235.19   361.55   397.48   425.28   486.28
                              528.00   611.95   732.46   754.10   778.56
                              942.99  1027.19  1098.37  1176.56  1205.96
                             1233.64  1235.56  1348.98  1378.76  1459.57
                             1490.32  1507.69  1548.67  1563.69  1577.66
                             1652.75  1690.26  1744.17  1781.50  1784.53
                             1819.42  1861.85  1893.96  1940.30  1953.40
                             2014.68  2076.79  2105.84  2149.32  2179.82
                             2197.37  2226.08  2247.24  2257.58  2354.45
                             2414.32  4327.29  4356.53  4371.27  4372.03
                             4427.53  4442.92  4489.48  4569.42  4573.10
                             4620.97  4637.32  5422.63

 Zero-point correction=                           0.194140 (Hartree/Particle)
 Thermal correction to Energy=                    0.205551
 Thermal correction to Enthalpy=                  0.206495
 Thermal correction to Gibbs Free Energy=         0.154859
 Sum of electronic and zero-point Energies=           -500.415239
 Sum of electronic and thermal Energies=              -500.403827
 Sum of electronic and thermal Enthalpies=            -500.402883
 Sum of electronic and thermal Free Energies=         -500.454519

                     E (Thermal)             CV                S
                      KCal/Mol        Cal/Mol-Kelvin    Cal/Mol-Kelvin
 Total                  128.985             40.980            108.677
 Electronic               0.000              0.000              0.000
 Translational            0.889              2.981             40.968
 Rotational               0.889              2.981             30.487
 Vibrational            127.208             35.018             37.222
 Vibration     1          0.593              1.986              6.992
 Vibration     2          0.594              1.981              5.283
 Vibration     3          0.602              1.956              3.639
 Vibration     4          0.604              1.949              3.458
 Vibration     5          0.613              1.921              2.908
 Vibration     6          0.623              1.887              2.509
 Vibration     7          0.663              1.761              1.722
 Vibration     8          0.678              1.717              1.557
 Vibration     9          0.690              1.682              1.442
 Vibration    10          0.718              1.600              1.222
 Vibration    11          0.740              1.540              1.092
 Vibration    12          0.787              1.415              0.874
 Vibration    13          0.864              1.230              0.636
 Vibration    14          0.879              1.197              0.600
 Vibration    15          0.896              1.159              0.563

 Optimization completed on the basis of negligible forces.
    -- Stationary point found.
 Normal termination of Gaussian 09 at Thu Sep 30 13:52:59 2021.
 Gaussian 09:  AM64L-G09RevA.02 11-Jun-2009

 ----------------------------------------------------------------------
 #p TD(NStates=10, Root=1) b3lyp/6-31G* volume pop=NPA density=current
 Geom=AllCheck Guess=Read
 ----------------------------------------------------------------------

 OCCOc1ccc(cc1)C_conf_0
 ----------------------
 Redundant internal coordinates taken from checkpoint file:
 C9H12O2_8950_conf_0.chk
 Charge =  0 Multiplicity = 1

                         Standard orientation:
 ---------------------------------------------------------------------
 Center     Atomic      Atomic             Coordinates (Angstroms)
 Number     Number       Type             X           Y           Z
 ---------------------------------------------------------------------
      1          8           0        4.563427   -0.660246    0.000269
      2          6           0        3.586562    0.372093    0.000233
      3          6           0        2.230448   -0.316647    0.000131
      4          8           0        1.247137    0.708656    0.000244
      5          6           0       -0.073100    0.348216    0.000067
      6          6           0       -0.539637   -0.968475   -0.000410
      7          6           0       -1.918056   -1.211146   -0.000990
      8          6           0       -2.851293   -0.173418   -0.000854
      9          6           0       -2.357586    1.142268   -0.000691
     10          6           0       -0.994552    1.405903   -0.000149
     11          6           0       -4.338044   -0.444668    0.001406
     12          1           0        5.437569   -0.243816    0.000107
     13          1           0        3.664929    1.015577   -0.889104
     14          1           0        3.664823    1.015538    0.889609
     15          1           0        2.136480   -0.953536    0.890267
     16          1           0        2.136520   -0.953310   -0.890169
     17          1           0        0.148467   -1.806229   -0.000836
     18          1           0       -2.266067   -2.241889   -0.001690
     19          1           0       -3.056632    1.976221   -0.001235
     20          1           0       -0.616721    2.423865   -0.000383
     21          1           0       -4.546415   -1.519014   -0.029422
     22          1           0       -4.834101    0.014168   -0.863326
     23          1           0       -4.821808   -0.039622    0.899621
 ---------------------------------------------------------------------

 SCF Done:  E(RB3LYP) =  -500.609378094     A.U. after    1 cycles

 Excitation energies and oscillator strengths:

 Excited State   1:      Singlet-A      5.0828 eV  243.93 nm  f=0.0290  <S**2>=0.000
      40 -> 43         0.30406
      41 -> 42         0.63816
 This state for optimization and/or second-order correction.
 Total Energy, E(TD-HF/TD-KS) =  -500.422589994
 Copying the excited state density for this state as the 1-particle RhoCI density.

 Excited State   2:      Singlet-A      5.8747 eV  211.05 nm  f=0.1814  <S**2>=0.000
      40 -> 42        -0.30895
      41 -> 43         0.63249

 Excited State   3:      Singlet-A      6.7450 eV  183.82 nm  f=0.0000  <S**2>=0.000
      41 -> 44         0.69536

 Excited State   4:      Singlet-A      6.9202 eV  179.16 nm  f=0.2885  <S**2>=0.000
      38 -> 42        -0.23922
      40 -> 42        -0.27481
      40 -> 43         0.52047
      41 -> 42        -0.24452
      41 -> 43        -0.12918

 Excited State   5:      Singlet-A      6.9685 eV  177.92 nm  f=0.6995  <S**2>=0.000
      40 -> 42         0.55987
      40 -> 43         0.26858
      41 -> 42        -0.13268
      41 -> 43         0.26859

 Excited State   6:      Singlet-A      7.1257 eV  174.00 nm  f=0.0076  <S**2>=0.000
      39 -> 42         0.69992

 Excited State   7:      Singlet-A      7.3610 eV  168.43 nm  f=0.0003  <S**2>=0.000
      41 -> 45         0.69564

 Excited State   8:      Singlet-A      7.4915 eV  165.50 nm  f=0.0001  <S**2>=0.000
      39 -> 43         0.70587

 Excited State   9:      Singlet-A      7.6364 eV  162.36 nm  f=0.0011  <S**2>=0.000
      36 -> 42         0.21201
      37 -> 42         0.66939

 Excited State  10:      Singlet-A      7.6576 eV  161.91 nm  f=0.0002  <S**2>=0.000
      39 -> 44         0.69448

 The electronic state is 1-A.
 Alpha  occ. eigenvalues --  -19.17298 -19.15082 -10.24020 -10.23814 -10.23643
 Alpha  occ. eigenvalues --  -10.18513 -10.18264 -10.18199 -10.18118 -10.17891
 Alpha  occ. eigenvalues --  -10.17831  -1.05997  -1.02264  -0.84618  -0.77589
 Alpha  occ. eigenvalues --   -0.74241  -0.73516  -0.67052  -0.63034  -0.59540
 Alpha  occ. eigenvalues --   -0.57376  -0.54068  -0.49857  -0.49319  -0.47066
 Alpha  occ. eigenvalues --   -0.45687  -0.43402  -0.42017  -0.41369  -0.41240
 Alpha  occ. eigenvalues --   -0.41038  -0.38210  -0.35866  -0.35637  -0.34819
 Alpha  occ. eigenvalues --   -0.33746  -0.31890  -0.30469  -0.27445  -0.24369
 Alpha  occ. eigenvalues --   -0.20833
 Alpha virt. eigenvalues --    0.00541   0.01978   0.06279   0.09877   0.11049
 Alpha virt. eigenvalues --    0.12628   0.13842   0.14743   0.15155   0.15451
 Alpha virt. eigenvalues --    0.15585   0.17542   0.18986   0.19814   0.20508

 Mulliken atomic charges:
              1
     1  O   -0.619776
     2  C   -0.052199
     3  C   -0.048848
     4  O   -0.470875
     5  C    0.357301
     6  C   -0.199053
     7  C   -0.219599
     8  C    0.202036
     9  C   -0.212208
    10  C   -0.189783
    11  C   -0.533449
    12  H    0.402799
    13  H    0.140663
    14  H    0.140665
    15  H    0.171696
    16  H    0.171698
    17  H    0.125699
    18  H    0.113578
    19  H    0.109092
    20  H    0.121432
    21  H    0.156453
    22  H    0.165765
    23  H    0.166914
 Sum of Mulliken atomic charges =   0.00000

 Dipole moment (field-independent basis, Debye):
    X=              2.0821    Y=              0.3084    Z=              0.0058  Tot=              2.1048
 Quadrupole moment (field-independent basis, Debye-Ang):
   XX=            -48.1713   YY=            -65.4664   ZZ=            -67.8899
   XY=              5.6260   XZ=             -0.0295   YZ=             -0.0008

 Summary of Natural Population Analysis:

                                       Natural Population
                Natural  -----------------------------------------------
    Atom  No    Charge         Core      Valence    Rydberg      Total
 -----------------------------------------------------------------------
      O    1   -0.75304      1.99983     6.74077    0.01243     8.75304
      C    2   -0.11028      1.99930     4.09412    0.01686     6.11028
      C    3   -0.13227      1.99925     4.11562    0.01740     6.13227
      O    4   -0.44441      1.99974     6.43251    0.01217     8.44441
      C    5    0.33441      1.99879     3.64401    0.02279     5.66559
      C    6   -0.34227      1.99905     4.32572    0.01751     6.34227
      C    7   -0.27328      1.99907     4.25554    0.01867     6.27328
      C    8    0.04011      1.99904     3.94527    0.01558     5.95989
      C    9   -0.29868      1.99907     4.28092    0.01869     6.29868
      C   10   -0.30943      1.99907     4.28988    0.02048     6.30943
      C   11   -0.69465      1.99939     4.68763    0.00763     6.69465
      H   12    0.48044      0.00000     0.51830    0.00126     0.51956
      H   13    0.20265      0.00000     0.79497    0.00237     0.79735
      H   14    0.20266      0.00000     0.79497    0.00237     0.79734
      H   15    0.22737      0.00000     0.76960    0.00303     0.77263
      H   16    0.22737      0.00000     0.76961    0.00302     0.77263
      H   17    0.22886      0.00000     0.77019    0.00095     0.77114
      H   18    0.22494      0.00000     0.77400    0.00107     0.77506
      H   19    0.22444      0.00000     0.77455    0.00101     0.77556
      H   20    0.23424      0.00000     0.76449    0.00128     0.76576
      H   21    0.23703      0.00000     0.76207    0.00091     0.76297
      H   22    0.24648      0.00000     0.75164    0.00188     0.75352
      H   23    0.24732      0.00000     0.75088    0.00180     0.75268
 =======================================================================
   * Total *   -0.00000     21.99160    59.80727    0.20113    82.00000

 Normal termination of Gaussian 09 at Thu Sep 30 16:22:30 2021.
