 Gaussian 09, Revision A.02,

 -----------------------------------
 #p opt b3lyp/6-31G* scf=(xqc,tight)
 -----------------------------------

 --------------------------
 CN(C(=O)Oc1ccccc1)C_conf_0
 --------------------------
 Symbolic Z-matrix:
 Charge =  0 Multiplicity = 1

 SCF Done:  E(RB3LYP) =  -554.788848503     A.U. after   15 cycles
 SCF Done:  E(RB3LYP) =  -554.792621597     A.U. after   12 cycles
 SCF Done:  E(RB3LYP) =  -554.792896543     A.U. after   12 cycles
 SCF Done:  E(RB3LYP) =  -554.793442232     A.U. after   12 cycles
 SCF Done:  E(RB3LYP) =  -554.793655204     A.U. after   11 cycles
 SCF Done:  E(RB3LYP) =  -554.793840965     A.U. after   12 cycles
 SCF Done:  E(RB3LYP) =  -554.794020070     A.U. after   13 cycles
 SCF Done:  E(RB3LYP) =  -554.794103833     A.U. after   11 cycles
 SCF Done:  E(RB3LYP) =  -554.794145663     A.U. after   11 cycles
 SCF Done:  E(RB3LYP) =  -554.794153595     A.U. after   10 cycles
 SCF Done:  E(RB3LYP) =  -554.794223483     A.U. after   10 cycles
 SCF Done:  E(RB3LYP) =  -554.794227157     A.U. after   10 cycles
 SCF Done:  E(RB3LYP) =  -554.794222723     A.U. after   11 cycles
 SCF Done:  E(RB3LYP) =  -554.794228625     A.U. after   10 cycles
 SCF Done:  E(RB3LYP) =  -554.794228642     A.U. after    7 cycles
 SCF Done:  E(RB3LYP) =  -554.794228666     A.U. after    7 cycles
 SCF Done:  E(RB3LYP) =  -554.794228674     A.U. after    7 cycles
 SCF Done:  E(RB3LYP) =  -554.794228670     A.U. after    6 cycles
 Optimization completed.
    -- Stationary point found.
 Normal termination of Gaussian 09 at Thu Sep 30 18:44:49 2021.

 ----------------------------------------------------------------------
 #p freq b3lyp/6-31G* volume NMR pop=NPA density=current Geom=AllCheck
 Guess=Read
 ----------------------------------------------------------------------

 CN(C(=O)Oc1ccccc1)C_conf_0
 --------------------------
 Redundant internal coordinates taken from checkpoint file:
 C9H11NO2_01e0_conf_0.chk
 Charge =  0 Multiplicity = 1

 SCF Done:  E(RB3LYP) =  -554.794228670     A.U. after    1 cycles

  1  C    Isotropic =   155.2615   Anisotropy =    51.1774

  2  N    Isotropic =   180.4972   Anisotropy =    83.3190

  3  C    Isotropic =    46.9278   Anisotropy =    77.6995

  4  O    Isotropic =    68.1452   Anisotropy =   388.6146

  5  O    Isotropic =   145.0748   Anisotropy =   132.1912

  6  C    Isotropic =    44.7388   Anisotropy =   111.6333

  7  C    Isotropic =    72.8009   Anisotropy =   154.4179

  8  C    Isotropic =    67.8364   Anisotropy =   163.8893

  9  C    Isotropic =    72.6202   Anisotropy =   162.8116

 10  C    Isotropic =    68.0802   Anisotropy =   163.6082

 11  C    Isotropic =    76.3538   Anisotropy =   140.0487

 12  C    Isotropic =   155.5563   Anisotropy =    49.6694

 13  H    Isotropic =    28.1643   Anisotropy =     6.9420

 14  H    Isotropic =    29.9620   Anisotropy =     9.0653

 15  H    Isotropic =    29.8812   Anisotropy =     9.3044

 16  H    Isotropic =    24.8734   Anisotropy =     8.7987

 17  H    Isotropic =    24.9819   Anisotropy =     4.7132

 18  H    Isotropic =    25.2011   Anisotropy =     3.8900

 19  H    Isotropic =    25.0099   Anisotropy =     4.5515

 20  H    Isotropic =    25.4565   Anisotropy =     6.7556

 21  H    Isotropic =    29.6224   Anisotropy =     9.1556

 22  H    Isotropic =    29.8210   Anisotropy =     8.7893

 23  H    Isotropic =    28.3084   Anisotropy =     5.4221

  Exact polarizability: 151.242   4.386 100.703   4.678 -11.548  60.491
 Approx polarizability: 199.078   9.916 168.356  10.141 -21.191  93.001

                     1                      2                      3
                     A                      A                      A
 Frequencies --    30.8887                45.4010                57.4448
 Red. masses --     3.5244                 2.2706                 1.8950
 Frc consts  --     0.0020                 0.0028                 0.0037
 IR Inten    --     1.3108                 1.5128                 0.4493

                     4                      5                      6
                     A                      A                      A
 Frequencies --    98.6143               122.8966               145.6637
 Red. masses --     3.1028                 2.4943                 1.4766
 Frc consts  --     0.0178                 0.0222                 0.0185
 IR Inten    --     1.2965                 2.0862                 0.2355

                     7                      8                      9
                     A                      A                      A
 Frequencies --   217.8746               239.5396               276.8202
 Red. masses --     2.2519                 3.6724                 5.1630
 Frc consts  --     0.0630                 0.1242                 0.2331
 IR Inten    --     3.9771                 0.4465                 1.6069

                    10                     11                     12
                     A                      A                      A
 Frequencies --   362.5469               392.1758               423.6435
 Red. masses --     3.9519                 4.3489                 3.0723
 Frc consts  --     0.3060                 0.3941                 0.3249
 IR Inten    --     4.4245                12.1468                 0.4256

                    13                     14                     15
                     A                      A                      A
 Frequencies --   451.3584               512.3486               609.8106
 Red. masses --     3.4687                 3.3200                 6.4792
 Frc consts  --     0.4164                 0.5135                 1.4196
 IR Inten    --     7.3010                 4.3692                 5.3625

                    16                     17                     18
                     A                      A                      A
 Frequencies --   631.2160               644.4677               700.9831
 Red. masses --     6.3901                 5.5341                 2.3688
 Frc consts  --     1.5001                 1.3542                 0.6858
 IR Inten    --     2.2650                 1.8252                13.6178

                    19                     20                     21
                     A                      A                      A
 Frequencies --   738.4654               764.4287               839.2717
 Red. masses --    11.2786                 1.6803                 1.2627
 Frc consts  --     3.6238                 0.5785                 0.5240
 IR Inten    --    15.0361                46.2727                 0.5503

                    22                     23                     24
                     A                      A                      A
 Frequencies --   843.4386               861.0018               917.4122
 Red. masses --     5.2753                 4.9369                 1.5384
 Frc consts  --     2.2111                 2.1563                 0.7629
 IR Inten    --     2.3881                31.2021                 6.4436

                    25                     26                     27
                     A                      A                      A
 Frequencies --   959.7738               986.0216              1020.9115
 Red. masses --     1.3340                 1.2381                 6.1225
 Frc consts  --     0.7240                 0.7092                 3.7597
 IR Inten    --     0.1264                 0.0797                 2.8269

                    28                     29                     30
                     A                      A                      A
 Frequencies --  1038.2268              1056.5806              1094.0697
 Red. masses --     2.9480                 1.9704                 1.3650
 Frc consts  --     1.8723                 1.2960                 0.9626
 IR Inten    --    10.7973                 4.6198                 6.8965

                    31                     32                     33
                     A                      A                      A
 Frequencies --  1109.0221              1143.6376              1186.7031
 Red. masses --     1.4960                 1.2171                 1.7879
 Frc consts  --     1.0841                 0.9379                 1.4835
 IR Inten    --     6.2331                 0.3806               239.3072

                    34                     35                     36
                     A                      A                      A
 Frequencies --  1190.2925              1192.6642              1201.5642
 Red. masses --     1.1124                 1.6088                 1.2770
 Frc consts  --     0.9286                 1.3483                 1.0863
 IR Inten    --     0.9567               128.8524               152.1421

                    37                     38                     39
                     A                      A                      A
 Frequencies --  1249.2325              1299.1431              1344.5892
 Red. masses --     4.4373                 5.9011                 1.8981
 Frc consts  --     4.0799                 5.8681                 2.0219
 IR Inten    --   506.2625                18.8043                 0.6344

                    40                     41                     42
                     A                      A                      A
 Frequencies --  1363.9822              1438.9158              1459.0136
 Red. masses --     2.8504                 2.6843                 1.1768
 Frc consts  --     3.1245                 3.2746                 1.4760
 IR Inten    --     4.8049               289.5828                23.1481

                    43                     44                     45
                     A                      A                      A
 Frequencies --  1489.7741              1503.1835              1519.5717
 Red. masses --     1.2165                 2.2691                 1.0435
 Frc consts  --     1.5907                 3.0209                 1.4196
 IR Inten    --    61.1696                 3.2718                 3.0768

                    46                     47                     48
                     A                      A                      A
 Frequencies --  1530.4218              1530.8279              1543.7049
 Red. masses --     1.0458                 1.0503                 2.1732
 Frc consts  --     1.4431                 1.4502                 3.0512
 IR Inten    --    16.2894                15.6921                66.2958

                    49                     50                     51
                     A                      A                      A
 Frequencies --  1565.6358              1652.3591              1660.2313
 Red. masses --     1.2452                 5.9968                 5.8325
 Frc consts  --     1.7983                 9.6466                 9.4720
 IR Inten    --    36.6543                 8.4547                16.8433

                    52                     53                     54
                     A                      A                      A
 Frequencies --  1817.2060              3026.5458              3034.6277
 Red. masses --    10.9153                 1.0423                 1.0426
 Frc consts  --    21.2370                 5.6250                 5.6571
 IR Inten    --   386.5102                30.1990               110.2414

                    55                     56                     57
                     A                      A                      A
 Frequencies --  3076.1050              3079.6913              3186.3778
 Red. masses --     1.1009                 1.1039                 1.0852
 Frc consts  --     6.1377                 6.1687                 6.4918
 IR Inten    --    59.8765                16.5814                 0.2291

                    58                     59                     60
                     A                      A                      A
 Frequencies --  3194.3520              3195.8975              3208.4091
 Red. masses --     1.0961                 1.0897                 1.0938
 Frc consts  --     6.5897                 6.5577                 6.6339
 IR Inten    --     0.9339                15.2396                31.9506

                    61                     62                     63
                     A                      A                      A
 Frequencies --  3210.6801              3217.5082              3250.6495
 Red. masses --     1.0944                 1.0959                 1.0930
 Frc consts  --     6.6468                 6.6846                 6.8049
 IR Inten    --     3.4361                 9.1914                 1.9191

 - Thermochemistry -
 -------------------
 Temperature   298.150 Kelvin.  Pressure   1.00000 Atm.
 Atom     1 has atomic number  6 and mass  12.00000

 Molecular mass:   165.07898 amu.
 Principal axes and moments of inertia in atomic units:
                           1         2         3
     Eigenvalues --   688.638053676.876504126.11210
           X            0.99998   0.00656   0.00246
           Y           -0.00651   0.99979  -0.01952
           Z           -0.00259   0.01950   0.99981
 This molecule is an asymmetric top.
 Rotational symmetry number  1.
 Warning -- assumption of classical behavior for rotation
           may cause significant error
 Rotational temperatures (Kelvin)      0.12578     0.02356     0.02099
 Rotational constants (GHZ):           2.62074     0.49084     0.43740
 Zero-point vibrational energy     494989.7 (Joules/Mol)
                                  118.30538 (Kcal/Mol)
 Warning -- explicit consideration of  15 degrees of freedom as
           vibrations may cause significant error
 Vibrational temperatures:     44.44    65.32    82.65   141.88   176.82
          (Kelvin)            209.58   313.47   344.64   398.28   521.62
                              564.25   609.53   649.40   737.15   877.38
                              908.18   927.24  1008.56  1062.49  1099.84
                             1207.52  1213.52  1238.79  1319.95  1380.90
                             1418.66  1468.86  1493.77  1520.18  1574.12
                             1595.63  1645.44  1707.40  1712.56  1715.98
                             1728.78  1797.36  1869.17  1934.56  1962.46
                             2070.28  2099.19  2143.45  2162.74  2186.32
                             2201.93  2202.52  2221.04  2252.60  2377.37
                             2388.70  2614.55  4354.52  4366.15  4425.82
                             4430.98  4584.48  4595.95  4598.18  4616.18
                             4619.45  4629.27  4676.95

 Zero-point correction=                           0.188532 (Hartree/Particle)
 Thermal correction to Energy=                    0.200289
 Thermal correction to Enthalpy=                  0.201234
 Thermal correction to Gibbs Free Energy=         0.148995
 Sum of electronic and zero-point Energies=           -554.605697
 Sum of electronic and thermal Energies=              -554.593939
 Sum of electronic and thermal Enthalpies=            -554.592995
 Sum of electronic and thermal Free Energies=         -554.645234

                     E (Thermal)             CV                S
                      KCal/Mol        Cal/Mol-Kelvin    Cal/Mol-Kelvin
 Total                  125.684             42.255            109.946
 Electronic               0.000              0.000              0.000
 Translational            0.889              2.981             41.212
 Rotational               0.889              2.981             30.725
 Vibrational            123.906             36.294             38.008
 Vibration     1          0.594              1.984              5.772
 Vibration     2          0.595              1.979              5.008
 Vibration     3          0.596              1.975              4.543
 Vibration     4          0.604              1.950              3.482
 Vibration     5          0.610              1.930              3.054
 Vibration     6          0.617              1.907              2.728
 Vibration     7          0.646              1.814              1.977
 Vibration     8          0.657              1.780              1.806
 Vibration     9          0.678              1.716              1.553
 Vibration    10          0.736              1.549              1.111
 Vibration    11          0.760              1.487              0.992
 Vibration    12          0.786              1.419              0.880
 Vibration    13          0.810              1.358              0.792
 Vibration    14          0.867              1.223              0.628
 Vibration    15          0.969              1.011              0.433

 Optimization completed.
    -- Stationary point found.
 Normal termination of Gaussian 09 at Thu Sep 30 19:28:25 2021.
 Gaussian 09:  AM64L-G09RevA.02 11-Jun-2009

 ----------------------------------------------------------------------
 #p TD(NStates=10, Root=1) b3lyp/6-31G* volume pop=NPA density=current
 Geom=AllCheck Guess=Read
 ----------------------------------------------------------------------

 CN(C(=O)Oc1ccccc1)C_conf_0
 --------------------------
 Redundant internal coordinates taken from checkpoint file:
 C9H11NO2_01e0_conf_0.chk
 Charge =  0 Multiplicity = 1

                         Standard orientation:
 ---------------------------------------------------------------------
 Center     Atomic      Atomic             Coordinates (Angstroms)
 Number     Number       Type             X           Y           Z
 ---------------------------------------------------------------------
      1          6           0        3.726803   -0.699869   -0.339032
      2          7           0        2.589526    0.110721    0.066801
      3          6           0        1.332300   -0.370594   -0.163506
      4          8           0        1.071494   -1.459310   -0.638564
      5          8           0        0.381660    0.551106    0.221543
      6          6           0       -0.971895    0.242657    0.107257
      7          6           0       -1.516380   -0.952083    0.579038
      8          6           0       -2.897071   -1.138107    0.501524
      9          6           0       -3.723788   -0.145508   -0.029053
     10          6           0       -3.162643    1.046642   -0.489685
     11          6           0       -1.783065    1.243285   -0.425272
     12          6           0        2.891286    1.436613    0.584171
     13          1           0        3.364604   -1.665481   -0.688275
     14          1           0        4.407298   -0.848184    0.509149
     15          1           0        4.285327   -0.208116   -1.147345
     16          1           0       -0.871294   -1.722456    0.981675
     17          1           0       -3.327110   -2.068575    0.862268
     18          1           0       -4.797690   -0.300533   -0.082432
     19          1           0       -3.796127    1.826776   -0.902971
     20          1           0       -1.325056    2.161797   -0.778883
     21          1           0        3.355536    2.061703   -0.191798
     22          1           0        3.596342    1.354256    1.421148
     23          1           0        1.982977    1.921182    0.933374
 ---------------------------------------------------------------------

 SCF Done:  E(RB3LYP) =  -554.794228670     A.U. after    1 cycles

 Excitation energies and oscillator strengths:

 Excited State   1:      Singlet-A      5.3821 eV  230.36 nm  f=0.0042  <S**2>=0.000
      42 -> 46         0.37919
      43 -> 45        -0.10209
      43 -> 46        -0.19552
      44 -> 45         0.54872
 This state for optimization and/or second-order correction.
 Total Energy, E(TD-HF/TD-KS) =  -554.596438835
 Copying the excited state density for this state as the 1-particle RhoCI density.

 Excited State   2:      Singlet-A      5.9629 eV  207.93 nm  f=0.1531  <S**2>=0.000
      42 -> 45        -0.22782
      43 -> 45         0.18103
      43 -> 46         0.11131
      44 -> 46         0.62323

 Excited State   3:      Singlet-A      6.1053 eV  203.08 nm  f=0.0060  <S**2>=0.000
      42 -> 45         0.29367
      42 -> 46        -0.11223
      43 -> 45         0.59620
      44 -> 45         0.20244

 Excited State   4:      Singlet-A      6.1965 eV  200.09 nm  f=0.0105  <S**2>=0.000
      42 -> 45         0.22653
      42 -> 46         0.26068
      43 -> 46         0.60453

 Excited State   5:      Singlet-A      6.4106 eV  193.40 nm  f=0.0188  <S**2>=0.000
      41 -> 46         0.58537
      41 -> 47        -0.24447
      42 -> 46        -0.23020
      42 -> 47         0.10985
      44 -> 45         0.11285

 Excited State   6:      Singlet-A      6.6276 eV  187.07 nm  f=0.2013  <S**2>=0.000
      41 -> 45         0.58956
      42 -> 45        -0.26849
      43 -> 45         0.11051
      43 -> 46         0.12263
      44 -> 46        -0.16606
      44 -> 47         0.12394

 Excited State   7:      Singlet-A      6.8725 eV  180.41 nm  f=0.2986  <S**2>=0.000
      40 -> 46         0.11326
      41 -> 45        -0.33669
      42 -> 45        -0.35350
      43 -> 45         0.14748
      44 -> 46        -0.11843
      44 -> 47         0.43717

 Excited State   8:      Singlet-A      7.0221 eV  176.56 nm  f=0.2470  <S**2>=0.000
      40 -> 45         0.24819
      41 -> 46         0.28947
      42 -> 46         0.39939
      42 -> 47        -0.10719
      43 -> 45         0.15717
      43 -> 46        -0.17181
      43 -> 47         0.10318
      44 -> 45        -0.32641

 Excited State   9:      Singlet-A      7.1284 eV  173.93 nm  f=0.0660  <S**2>=0.000
      41 -> 46         0.22828
      41 -> 47         0.52888
      42 -> 46        -0.11343
      42 -> 47        -0.32009
      43 -> 47         0.12601

 Excited State  10:      Singlet-A      7.2489 eV  171.04 nm  f=0.1358  <S**2>=0.000
      40 -> 46        -0.33546
      41 -> 45         0.13351
      42 -> 45         0.24862
      43 -> 45        -0.11496
      43 -> 47        -0.13545
      44 -> 46         0.15543
      44 -> 47         0.48352

 The electronic state is 1-A.
 Alpha  occ. eigenvalues --  -19.19355 -19.11539 -14.37006 -10.33279 -10.24765
 Alpha  occ. eigenvalues --  -10.22279 -10.21730 -10.19025 -10.18902 -10.18814
 Alpha  occ. eigenvalues --  -10.18624 -10.18573  -1.10445  -1.01328  -0.94161
 Alpha  occ. eigenvalues --   -0.84916  -0.75441  -0.74482  -0.72597  -0.69985
 Alpha  occ. eigenvalues --   -0.62504  -0.60668  -0.56034  -0.53277  -0.50049
 Alpha  occ. eigenvalues --   -0.48745  -0.48405  -0.45842  -0.45109  -0.43141
 Alpha  occ. eigenvalues --   -0.42427  -0.42069  -0.40733  -0.40607  -0.40063
 Alpha  occ. eigenvalues --   -0.38361  -0.36220  -0.35649  -0.34539  -0.31125
 Alpha  occ. eigenvalues --   -0.27199  -0.24728  -0.24541  -0.23189
 Alpha virt. eigenvalues --    0.00227   0.00432   0.05595   0.09063   0.09229
 Alpha virt. eigenvalues --    0.12944   0.14192   0.14401   0.15065   0.15831
 Alpha virt. eigenvalues --    0.16038   0.16583   0.17437   0.18381   0.18945

 Mulliken atomic charges:
              1
     1  C   -0.319626
     2  N   -0.431839
     3  C    0.783232
     4  O   -0.500235
     5  O   -0.531546
     6  C    0.344722
     7  C   -0.142868
     8  C   -0.161140
     9  C   -0.114286
    10  C   -0.156577
    11  C   -0.171553
    12  C   -0.317438
    13  H    0.208041
    14  H    0.157164
    15  H    0.157956
    16  H    0.150555
    17  H    0.131148
    18  H    0.133493
    19  H    0.129349
    20  H    0.132508
    21  H    0.159076
    22  H    0.159411
    23  H    0.200452
 Sum of Mulliken atomic charges =  -0.00000

 Dipole moment (field-independent basis, Debye):
    X=              2.3274    Y=              1.9203    Z=              0.8988  Tot=              3.1483
 Quadrupole moment (field-independent basis, Debye-Ang):
   XX=            -54.9546   YY=            -69.5313   ZZ=            -71.7729
   XY=              2.7867   XZ=              1.3986   YZ=             -3.4413

 Summary of Natural Population Analysis:

                                       Natural Population
                Natural  -----------------------------------------------
    Atom  No    Charge         Core      Valence    Rydberg      Total
 -----------------------------------------------------------------------
      C    1   -0.47010      1.99947     4.45871    0.01193     6.47010
      N    2   -0.47788      1.99932     5.46760    0.01096     7.47788
      C    3    0.93633      1.99937     3.01936    0.04494     5.06367
      O    4   -0.63484      1.99978     6.61588    0.01918     8.63484
      O    5   -0.52563      1.99969     6.51551    0.01044     8.52563
      C    6    0.31372      1.99874     3.66420    0.02335     5.68628
      C    7   -0.27618      1.99904     4.25923    0.01791     6.27618
      C    8   -0.25190      1.99915     4.23421    0.01854     6.25190
      C    9   -0.19871      1.99913     4.18270    0.01688     6.19871
      C   10   -0.25556      1.99915     4.23783    0.01859     6.25556
      C   11   -0.27650      1.99904     4.25850    0.01896     6.27650
      C   12   -0.47153      1.99946     4.46053    0.01153     6.47153
      H   13    0.26451      0.00000     0.73398    0.00151     0.73549
      H   14    0.22254      0.00000     0.77619    0.00127     0.77746
      H   15    0.22100      0.00000     0.77758    0.00141     0.77900
      H   16    0.24847      0.00000     0.75034    0.00119     0.75153
      H   17    0.23115      0.00000     0.76801    0.00085     0.76885
      H   18    0.23031      0.00000     0.76885    0.00084     0.76969
      H   19    0.23041      0.00000     0.76875    0.00084     0.76959
      H   20    0.23631      0.00000     0.76248    0.00120     0.76369
      H   21    0.22146      0.00000     0.77691    0.00163     0.77854
      H   22    0.22509      0.00000     0.77350    0.00141     0.77491
      H   23    0.25754      0.00000     0.74157    0.00089     0.74246
 =======================================================================
   * Total *    0.00000     23.99135    63.77241    0.23624    88.00000

 Normal termination of Gaussian 09 at Thu Sep 30 22:12:15 2021.
