 Gaussian 09, Revision A.02,

 -----------------------------------
 #p opt b3lyp/6-31G* scf=(xqc,tight)
 -----------------------------------

 -------------------------
 CCCCB1OCC(CO1)(C)C_conf_0
 -------------------------
 Symbolic Z-matrix:
 Charge =  0 Multiplicity = 1

 SCF Done:  E(RB3LYP) =  -529.772997257     A.U. after   14 cycles
 SCF Done:  E(RB3LYP) =  -529.789994375     A.U. after   15 cycles
 SCF Done:  E(RB3LYP) =  -529.807073176     A.U. after   14 cycles
 SCF Done:  E(RB3LYP) =  -529.813681084     A.U. after   14 cycles
 SCF Done:  E(RB3LYP) =  -529.816313910     A.U. after   13 cycles
 SCF Done:  E(RB3LYP) =  -529.816200818     A.U. after   12 cycles
 SCF Done:  E(RB3LYP) =  -529.816866320     A.U. after   11 cycles
 SCF Done:  E(RB3LYP) =  -529.816906842     A.U. after   10 cycles
 SCF Done:  E(RB3LYP) =  -529.816927466     A.U. after    9 cycles
 SCF Done:  E(RB3LYP) =  -529.816888238     A.U. after   14 cycles
 SCF Done:  E(RB3LYP) =  -529.816871523     A.U. after   11 cycles
 SCF Done:  E(RB3LYP) =  -529.817057543     A.U. after   10 cycles
 SCF Done:  E(RB3LYP) =  -529.817058144     A.U. after   10 cycles
 SCF Done:  E(RB3LYP) =  -529.817057905     A.U. after    8 cycles
 SCF Done:  E(RB3LYP) =  -529.817057642     A.U. after    8 cycles
 SCF Done:  E(RB3LYP) =  -529.817057504     A.U. after    7 cycles
 SCF Done:  E(RB3LYP) =  -529.817057461     A.U. after    7 cycles
 SCF Done:  E(RB3LYP) =  -529.817057506     A.U. after    6 cycles
 Optimization completed on the basis of negligible forces.
    -- Stationary point found.
 Normal termination of Gaussian 09 at Tue Oct  5 17:06:43 2021.

 ----------------------------------------------------------------------
 #p freq b3lyp/6-31G* volume NMR pop=NPA density=current Geom=AllCheck
 Guess=Read
 ----------------------------------------------------------------------

 CCCCB1OCC(CO1)(C)C_conf_0
 -------------------------
 Redundant internal coordinates taken from checkpoint file:
 C9H19BO2_43bd_conf_0.chk
 Charge =  0 Multiplicity = 1

 SCF Done:  E(RB3LYP) =  -529.817057506     A.U. after    1 cycles

  1  C    Isotropic =   173.3837   Anisotropy =    24.1214

  2  C    Isotropic =   160.9796   Anisotropy =    24.0829

  3  C    Isotropic =   160.7551   Anisotropy =    26.7912

  4  C    Isotropic =   172.4802   Anisotropy =    28.5053

  5  B    Isotropic =    83.8156   Anisotropy =    21.9688

  6  O    Isotropic =   227.7496   Anisotropy =   155.8780

  7  C    Isotropic =   119.4136   Anisotropy =    41.6221

  8  C    Isotropic =   157.3756   Anisotropy =    13.8992

  9  C    Isotropic =   119.2707   Anisotropy =    42.6137

 10  O    Isotropic =   226.0714   Anisotropy =   166.6973

 11  C    Isotropic =   166.7872   Anisotropy =    33.0102

 12  C    Isotropic =   166.2247   Anisotropy =    37.9692

 13  H    Isotropic =    31.1213   Anisotropy =    10.0272

 14  H    Isotropic =    31.2599   Anisotropy =     7.5399

 15  H    Isotropic =    31.2794   Anisotropy =     7.7075

 16  H    Isotropic =    30.8589   Anisotropy =     5.9046

 17  H    Isotropic =    30.8089   Anisotropy =     6.0861

 18  H    Isotropic =    30.8524   Anisotropy =     4.8069

 19  H    Isotropic =    30.5945   Anisotropy =     5.0671

 20  H    Isotropic =    31.3687   Anisotropy =     5.4708

 21  H    Isotropic =    31.4120   Anisotropy =     5.8044

 22  H    Isotropic =    28.6033   Anisotropy =     5.3439

 23  H    Isotropic =    28.3595   Anisotropy =     5.8398

 24  H    Isotropic =    28.5620   Anisotropy =     4.9248

 25  H    Isotropic =    28.3398   Anisotropy =     5.7486

 26  H    Isotropic =    30.3747   Anisotropy =     6.2987

 27  H    Isotropic =    31.4609   Anisotropy =     8.8666

 28  H    Isotropic =    31.4395   Anisotropy =     8.6848

 29  H    Isotropic =    31.6376   Anisotropy =     9.3128

 30  H    Isotropic =    31.3772   Anisotropy =     8.6403

 31  H    Isotropic =    31.3805   Anisotropy =     8.7323

  Exact polarizability: 135.458  -1.047 101.112  -1.698   0.575  95.617
 Approx polarizability: 151.654  -1.200 147.936  -2.133   0.032 140.470

                     1                      2                      3
                     A                      A                      A
 Frequencies --    13.9061                54.4441                73.0094
 Red. masses --     2.3823                 2.0932                 3.5301
 Frc consts  --     0.0003                 0.0037                 0.0111
 IR Inten    --     0.0463                 0.3986                 0.4218

                     4                      5                      6
                     A                      A                      A
 Frequencies --   107.9908               129.4081               136.5988
 Red. masses --     3.0249                 1.9695                 3.7144
 Frc consts  --     0.0208                 0.0194                 0.0408
 IR Inten    --     0.0839                 0.0166                 0.3246

                     7                      8                      9
                     A                      A                      A
 Frequencies --   204.7623               214.5805               228.2101
 Red. masses --     1.0957                 1.5350                 2.9421
 Frc consts  --     0.0271                 0.0416                 0.0903
 IR Inten    --     0.0898                 0.0646                 3.1553

                    10                     11                     12
                     A                      A                      A
 Frequencies --   239.4399               254.6952               258.0464
 Red. masses --     1.7737                 1.2869                 2.2651
 Frc consts  --     0.0599                 0.0492                 0.0889
 IR Inten    --     1.1424                 0.8783                 0.4132

                    13                     14                     15
                     A                      A                      A
 Frequencies --   289.6979               347.6182               385.5836
 Red. masses --     2.1536                 2.4227                 2.5463
 Frc consts  --     0.1065                 0.1725                 0.2230
 IR Inten    --     1.3202                 0.1734                 0.4737

                    16                     17                     18
                     A                      A                      A
 Frequencies --   407.9393               434.0899               501.9050
 Red. masses --     2.0160                 2.6843                 4.6341
 Frc consts  --     0.1977                 0.2980                 0.6878
 IR Inten    --     0.4523                 2.5597                 4.4628

                    19                     20                     21
                     A                      A                      A
 Frequencies --   508.6769               530.2690               662.6276
 Red. masses --     3.3786                 2.9783                 4.3845
 Frc consts  --     0.5151                 0.4934                 1.1343
 IR Inten    --     1.9909                 4.3887                10.8172

                    22                     23                     24
                     A                      A                      A
 Frequencies --   729.1037               747.1033               786.5878
 Red. masses --     1.2383                 3.6711                 1.3878
 Frc consts  --     0.3878                 1.2073                 0.5059
 IR Inten    --     8.6774                 5.7043                 3.4362

                    25                     26                     27
                     A                      A                      A
 Frequencies --   818.7194               902.9606               913.4808
 Red. masses --     3.6399                 1.8634                 1.4230
 Frc consts  --     1.4375                 0.8951                 0.6996
 IR Inten    --     7.5104                 2.6722                 7.5717

                    28                     29                     30
                     A                      A                      A
 Frequencies --   921.4204               938.1876               960.3491
 Red. masses --     1.8333                 2.1978                 1.3408
 Frc consts  --     0.9170                 1.1398                 0.7286
 IR Inten    --     2.6077                 3.9897                 0.4057

                    31                     32                     33
                     A                      A                      A
 Frequencies --   966.6577              1012.0739              1033.7802
 Red. masses --     1.4257                 3.7132                 2.5739
 Frc consts  --     0.7849                 2.2409                 1.6207
 IR Inten    --     0.8083                 6.1845                 3.5616

                    34                     35                     36
                     A                      A                      A
 Frequencies --  1036.7662              1062.2919              1069.0378
 Red. masses --     2.1196                 1.3688                 2.0697
 Frc consts  --     1.3424                 0.9101                 1.3936
 IR Inten    --     5.9523                 1.5402                 1.6846

                    37                     38                     39
                     A                      A                      A
 Frequencies --  1074.1988              1108.4236              1128.0039
 Red. masses --     1.6669                 2.5028                 2.4693
 Frc consts  --     1.1333                 1.8117                 1.8512
 IR Inten    --     1.7312                13.4228                 0.9171

                    40                     41                     42
                     A                      A                      A
 Frequencies --  1214.9069              1224.2013              1243.4360
 Red. masses --     2.3313                 2.0006                 1.5647
 Frc consts  --     2.0274                 1.7665                 1.4254
 IR Inten    --   132.3209                46.1214                 4.8189

                    43                     44                     45
                     A                      A                      A
 Frequencies --  1252.9508              1258.6391              1285.3153
 Red. masses --     1.8875                 1.5462                 2.1287
 Frc consts  --     1.7459                 1.4431                 2.0720
 IR Inten    --    18.3150                10.8811               119.4215

                    46                     47                     48
                     A                      A                      A
 Frequencies --  1320.3970              1321.8609              1324.5469
 Red. masses --     1.4705                 1.9441                 1.4460
 Frc consts  --     1.5105                 2.0014                 1.4947
 IR Inten    --    74.6383               162.9476                16.2293

                    49                     50                     51
                     A                      A                      A
 Frequencies --  1346.7207              1349.4340              1381.7371
 Red. masses --     1.0656                 1.4427                 1.9518
 Frc consts  --     1.1387                 1.5478                 2.1955
 IR Inten    --     0.2043                 1.7677               209.8377

                    52                     53                     54
                     A                      A                      A
 Frequencies --  1417.4808              1429.6698              1432.5012
 Red. masses --     1.6171                 1.2354                 1.3576
 Frc consts  --     1.9143                 1.4877                 1.6414
 IR Inten    --    18.0888                 3.9530                 5.0484

                    55                     56                     57
                     A                      A                      A
 Frequencies --  1440.6229              1462.8545              1466.2428
 Red. masses --     1.2548                 1.2811                 1.7597
 Frc consts  --     1.5343                 1.6152                 2.2290
 IR Inten    --     4.7077                 8.3721                80.7666

                    58                     59                     60
                     A                      A                      A
 Frequencies --  1488.2052              1514.7615              1517.2229
 Red. masses --     1.1130                 1.0695                 1.0472
 Frc consts  --     1.4524                 1.4458                 1.4203
 IR Inten    --    12.4017                 0.4976                 0.0393

                    61                     62                     63
                     A                      A                      A
 Frequencies --  1518.1415              1526.0797              1530.2570
 Red. masses --     1.0545                 1.0703                 1.0411
 Frc consts  --     1.4320                 1.4686                 1.4364
 IR Inten    --     2.1686                 0.0834                 5.4406

                    64                     65                     66
                     A                      A                      A
 Frequencies --  1534.5048              1537.5311              1540.5415
 Red. masses --     1.0577                 1.0879                 1.0816
 Frc consts  --     1.4674                 1.5153                 1.5124
 IR Inten    --     4.7422                 0.0443                 4.3170

                    67                     68                     69
                     A                      A                      A
 Frequencies --  1543.4289              1550.0551              2997.7583
 Red. masses --     1.1174                 1.0921                 1.0681
 Frc consts  --     1.5683                 1.5459                 5.6553
 IR Inten    --    32.5679                 4.0718                12.2974

                    70                     71                     72
                     A                      A                      A
 Frequencies --  3018.4980              3023.6177              3028.6939
 Red. masses --     1.0601                 1.0638                 1.0639
 Frc consts  --     5.6909                 5.7302                 5.7500
 IR Inten    --     7.3681                35.5556                45.4253

                    73                     74                     75
                     A                      A                      A
 Frequencies --  3030.8409              3038.5501              3040.0630
 Red. masses --     1.0599                 1.0665                 1.0592
 Frc consts  --     5.7366                 5.8017                 5.7673
 IR Inten    --    58.2333                26.0158                26.8693

                    76                     77                     78
                     A                      A                      A
 Frequencies --  3042.2953              3045.8786              3051.5723
 Red. masses --     1.0373                 1.0977                 1.0388
 Frc consts  --     5.6568                 6.0001                 5.6995
 IR Inten    --    52.6461                 6.1949                16.4730

                    79                     80                     81
                     A                      A                      A
 Frequencies --  3073.2976              3078.5782              3082.3826
 Red. masses --     1.1024                 1.1013                 1.1024
 Frc consts  --     6.1349                 6.1498                 6.1710
 IR Inten    --    50.2651                31.6013                31.6244

                    82                     83                     84
                     A                      A                      A
 Frequencies --  3103.7091              3107.2636              3107.8686
 Red. masses --     1.1027                 1.1019                 1.1027
 Frc consts  --     6.2584                 6.2682                 6.2752
 IR Inten    --    69.8118                48.7070                 1.4079

                    85                     86                     87
                     A                      A                      A
 Frequencies --  3109.6616              3113.4672              3132.5215
 Red. masses --     1.1023                 1.1019                 1.1001
 Frc consts  --     6.2801                 6.2933                 6.3604
 IR Inten    --    40.4171                56.2015                25.8173

 - Thermochemistry -
 -------------------
 Temperature   298.150 Kelvin.  Pressure   1.00000 Atm.
 Atom     1 has atomic number  6 and mass  12.00000

 Molecular mass:   170.14781 amu.
 Principal axes and moments of inertia in atomic units:
                           1         2         3
     Eigenvalues --   729.642285005.121535248.59210
           X            1.00000  -0.00074   0.00070
           Y            0.00073   0.99979   0.02039
           Z           -0.00071  -0.02039   0.99979
 This molecule is an asymmetric top.
 Rotational symmetry number  1.
 Warning -- assumption of classical behavior for rotation
           may cause significant error
 Rotational temperatures (Kelvin)      0.11871     0.01731     0.01650
 Rotational constants (GHZ):           2.47346     0.36058     0.34385
 Zero-point vibrational energy     732075.2 (Joules/Mol)
                                  174.97016 (Kcal/Mol)
 Warning -- explicit consideration of  20 degrees of freedom as
           vibrations may cause significant error
 Vibrational temperatures:     20.01    78.33   105.04   155.37   186.19
          (Kelvin)            196.53   294.61   308.73   328.34   344.50
                              366.45   371.27   416.81   500.14   554.77
                              586.93   624.56   722.13   731.87   762.94
                              953.37  1049.02  1074.91  1131.72  1177.95
                             1299.16  1314.29  1325.72  1349.84  1381.73
                             1390.80  1456.15  1487.38  1491.67  1528.40
                             1538.10  1545.53  1594.77  1622.94  1747.98
                             1761.35  1789.02  1802.71  1810.90  1849.28
                             1899.75  1901.86  1905.73  1937.63  1941.53
                             1988.01  2039.44  2056.97  2061.05  2072.73
                             2104.72  2109.59  2141.19  2179.40  2182.94
                             2184.26  2195.69  2201.70  2207.81  2212.16
                             2216.49  2220.65  2230.18  4313.10  4342.94
                             4350.31  4357.61  4360.70  4371.79  4373.97
                             4377.18  4382.33  4390.53  4421.78  4429.38
                             4434.86  4465.54  4470.65  4471.52  4474.10
                             4479.58  4506.99

 Zero-point correction=                           0.278833 (Hartree/Particle)
 Thermal correction to Energy=                    0.292891
 Thermal correction to Enthalpy=                  0.293835
 Thermal correction to Gibbs Free Energy=         0.237072
 Sum of electronic and zero-point Energies=           -529.538225
 Sum of electronic and thermal Energies=              -529.524166
 Sum of electronic and thermal Enthalpies=            -529.523222
 Sum of electronic and thermal Free Energies=         -529.579985

                     E (Thermal)             CV                S
                      KCal/Mol        Cal/Mol-Kelvin    Cal/Mol-Kelvin
 Total                  183.792             51.781            119.468
 Electronic               0.000              0.000              0.000
 Translational            0.889              2.981             41.302
 Rotational               0.889              2.981             31.328
 Vibrational            182.014             45.820             46.838
 Vibration     1          0.593              1.986              7.356
 Vibration     2          0.596              1.976              4.649
 Vibration     3          0.599              1.967              4.071
 Vibration     4          0.606              1.943              3.305
 Vibration     5          0.612              1.924              2.955
 Vibration     6          0.614              1.917              2.851
 Vibration     7          0.640              1.833              2.090
 Vibration     8          0.645              1.819              2.004
 Vibration     9          0.651              1.798              1.893
 Vibration    10          0.657              1.780              1.807
 Vibration    11          0.665              1.755              1.698
 Vibration    12          0.667              1.749              1.675
 Vibration    13          0.686              1.693              1.476
 Vibration    14          0.725              1.580              1.177
 Vibration    15          0.754              1.501              1.017
 Vibration    16          0.773              1.453              0.934
 Vibration    17          0.795              1.396              0.845
 Vibration    18          0.857              1.246              0.653
 Vibration    19          0.864              1.231              0.637
 Vibration    20          0.885              1.183              0.587

 Optimization completed on the basis of negligible forces.
    -- Stationary point found.
 Normal termination of Gaussian 09 at Tue Oct  5 17:13:50 2021.
 Gaussian 09:  AM64L-G09RevA.02 11-Jun-2009

 ----------------------------------------------------------------------
 #p TD(NStates=10, Root=1) b3lyp/6-31G* volume pop=NPA density=current
 Geom=AllCheck Guess=Read
 ----------------------------------------------------------------------

 CCCCB1OCC(CO1)(C)C_conf_0
 -------------------------
 Redundant internal coordinates taken from checkpoint file:
 C9H19BO2_43bd_conf_0.chk
 Charge =  0 Multiplicity = 1

                         Standard orientation:
 ---------------------------------------------------------------------
 Center     Atomic      Atomic             Coordinates (Angstroms)
 Number     Number       Type             X           Y           Z
 ---------------------------------------------------------------------
      1          6           0       -5.160496   -0.773434   -0.049829
      2          6           0       -4.102790    0.302845    0.215543
      3          6           0       -2.675928   -0.152685   -0.116251
      4          6           0       -1.610485    0.924838    0.144029
      5          5           0       -0.114573    0.496997   -0.138012
      6          8           0        0.830763    1.480353   -0.290213
      7          6           0        2.197222    1.142396   -0.529185
      8          6           0        2.591450   -0.220263    0.067727
      9          6           0        1.557414   -1.242320   -0.435882
     10          8           0        0.210616   -0.834322   -0.191549
     11          6           0        2.586550   -0.159557    1.606685
     12          6           0        3.988010   -0.613886   -0.436550
     13          1           0       -6.167907   -0.418188    0.196892
     14          1           0       -4.968663   -1.673138    0.548126
     15          1           0       -5.162940   -1.074483   -1.104950
     16          1           0       -4.147573    0.608638    1.271079
     17          1           0       -4.341195    1.203220   -0.369177
     18          1           0       -2.634615   -0.464662   -1.170047
     19          1           0       -2.435804   -1.052513    0.466047
     20          1           0       -1.673946    1.251372    1.195774
     21          1           0       -1.833775    1.830566   -0.438637
     22          1           0        2.809065    1.943040   -0.096860
     23          1           0        2.371194    1.141402   -1.614775
     24          1           0        1.696785   -2.209809    0.060770
     25          1           0        1.682482   -1.402555   -1.516177
     26          1           0        1.605042    0.115520    2.004353
     27          1           0        3.311792    0.579621    1.966936
     28          1           0        2.858105   -1.132783    2.032511
     29          1           0        4.022542   -0.666790   -1.531448
     30          1           0        4.284771   -1.593318   -0.042828
     31          1           0        4.740791    0.114030   -0.111157
 ---------------------------------------------------------------------

 SCF Done:  E(RB3LYP) =  -529.817057506     A.U. after    1 cycles

 Excitation energies and oscillator strengths:

 Excited State   1:      Singlet-A      7.8976 eV  156.99 nm  f=0.0002  <S**2>=0.000
      45 -> 48         0.13965
      46 -> 48         0.63761
      46 -> 49         0.10148
      47 -> 48        -0.23605
 This state for optimization and/or second-order correction.
 Total Energy, E(TD-HF/TD-KS) =  -529.526824986
 Copying the excited state density for this state as the 1-particle RhoCI density.

 Excited State   2:      Singlet-A      8.1618 eV  151.91 nm  f=0.0376  <S**2>=0.000
      46 -> 48         0.21823
      47 -> 48         0.65084
      47 -> 49        -0.11101

 Excited State   3:      Singlet-A      8.2844 eV  149.66 nm  f=0.0079  <S**2>=0.000
      45 -> 48         0.67129
      45 -> 49         0.11882
      46 -> 48        -0.14061

 Excited State   4:      Singlet-A      8.7193 eV  142.19 nm  f=0.0163  <S**2>=0.000
      46 -> 49         0.23007
      47 -> 49         0.64563

 Excited State   5:      Singlet-A      8.7507 eV  141.68 nm  f=0.0141  <S**2>=0.000
      45 -> 49         0.13938
      46 -> 48        -0.13246
      46 -> 49         0.63499
      47 -> 49        -0.21706

 Excited State   6:      Singlet-A      8.9178 eV  139.03 nm  f=0.1527  <S**2>=0.000
      44 -> 48         0.68501

 Excited State   7:      Singlet-A      9.1367 eV  135.70 nm  f=0.0056  <S**2>=0.000
      43 -> 48        -0.20155
      45 -> 48        -0.10565
      45 -> 49         0.61608
      45 -> 50         0.13248
      46 -> 49        -0.11827

 Excited State   8:      Singlet-A      9.1584 eV  135.38 nm  f=0.0454  <S**2>=0.000
      42 -> 48         0.36466
      43 -> 48         0.52883
      45 -> 49         0.21038

 Excited State   9:      Singlet-A      9.2472 eV  134.08 nm  f=0.0079  <S**2>=0.000
      41 -> 48        -0.10136
      42 -> 48         0.54019
      43 -> 48        -0.33503
      47 -> 50        -0.18329

 Excited State  10:      Singlet-A      9.2612 eV  133.88 nm  f=0.0035  <S**2>=0.000
      42 -> 48         0.12989
      43 -> 48        -0.13791
      47 -> 50         0.60427
      47 -> 51        -0.26475

 The electronic state is 1-A.
 Alpha  occ. eigenvalues --  -19.14890 -19.14717 -10.23789 -10.23734 -10.20769
 Alpha  occ. eigenvalues --  -10.18889 -10.18118 -10.16623 -10.16334 -10.16260
 Alpha  occ. eigenvalues --  -10.14617  -6.76926  -1.04004  -0.99984  -0.82424
 Alpha  occ. eigenvalues --   -0.77596  -0.71135  -0.69606  -0.68509  -0.68338
 Alpha  occ. eigenvalues --   -0.61635  -0.57706  -0.56135  -0.50253  -0.50056
 Alpha  occ. eigenvalues --   -0.47985  -0.45776  -0.45507  -0.44859  -0.41737
 Alpha  occ. eigenvalues --   -0.41373  -0.40627  -0.39845  -0.39125  -0.38836
 Alpha  occ. eigenvalues --   -0.37747  -0.37523  -0.35674  -0.34562  -0.33788
 Alpha  occ. eigenvalues --   -0.32962  -0.31598  -0.31185  -0.30419  -0.28753
 Alpha  occ. eigenvalues --   -0.28250  -0.27842
 Alpha virt. eigenvalues --    0.05543   0.07383   0.09831   0.11096   0.12614
 Alpha virt. eigenvalues --    0.12717   0.12932   0.13355   0.14353   0.15232
 Alpha virt. eigenvalues --    0.15716   0.15818   0.16400   0.18472   0.18782

 Mulliken atomic charges:
              1
     1  C   -0.439057
     2  C   -0.240212
     3  C   -0.238473
     4  C   -0.348396
     5  B    0.216842
     6  O   -0.324403
     7  C   -0.006276
     8  C   -0.002348
     9  C   -0.006341
    10  O   -0.328187
    11  C   -0.454402
    12  C   -0.462154
    13  H    0.131163
    14  H    0.133076
    15  H    0.134996
    16  H    0.120949
    17  H    0.122646
    18  H    0.111610
    19  H    0.112834
    20  H    0.083904
    21  H    0.104908
    22  H    0.179764
    23  H    0.107784
    24  H    0.180532
    25  H    0.103769
    26  H    0.198588
    27  H    0.155232
    28  H    0.155769
    29  H    0.158887
    30  H    0.168957
    31  H    0.168038
 Sum of Mulliken atomic charges =  -0.00000

 Dipole moment (field-independent basis, Debye):
    X=              6.5199    Y=             -1.3451    Z=              0.6077  Tot=              6.6849
 Quadrupole moment (field-independent basis, Debye-Ang):
   XX=            -67.3690   YY=            -74.1899   ZZ=            -77.1185
   XY=             -0.3537   XZ=              0.8993   YZ=             -0.4884

 Summary of Natural Population Analysis:

                                       Natural Population
                Natural  -----------------------------------------------
    Atom  No    Charge         Core      Valence    Rydberg      Total
 -----------------------------------------------------------------------
      C    1   -0.67113      1.99946     4.66454    0.00712     6.67113
      C    2   -0.44832      1.99935     4.43902    0.00995     6.44832
      C    3   -0.43886      1.99935     4.42806    0.01145     6.43886
      C    4   -0.77854      1.99923     4.76761    0.01170     6.77854
      B    5    0.62490      1.99914     2.34633    0.02963     4.37510
      O    6   -0.49853      1.99968     6.48988    0.00897     8.49853
      C    7   -0.08982      1.99905     4.06946    0.02131     6.08982
      C    8   -0.07446      1.99910     4.06306    0.01230     6.07446
      C    9   -0.08904      1.99905     4.06872    0.02126     6.08904
      O   10   -0.50812      1.99969     6.49964    0.00879     8.50812
      C   11   -0.68595      1.99936     4.67343    0.01316     6.68595
      C   12   -0.68374      1.99935     4.67379    0.01060     6.68374
      H   13    0.22483      0.00000     0.77422    0.00095     0.77517
      H   14    0.21946      0.00000     0.77933    0.00121     0.78054
      H   15    0.22045      0.00000     0.77838    0.00117     0.77955
      H   16    0.22153      0.00000     0.77625    0.00222     0.77847
      H   17    0.22245      0.00000     0.77584    0.00171     0.77755
      H   18    0.21808      0.00000     0.77822    0.00369     0.78192
      H   19    0.21700      0.00000     0.78123    0.00177     0.78300
      H   20    0.19268      0.00000     0.79981    0.00751     0.80732
      H   21    0.22489      0.00000     0.77260    0.00252     0.77511
      H   22    0.26006      0.00000     0.73839    0.00154     0.73994
      H   23    0.18550      0.00000     0.79415    0.02035     0.81450
      H   24    0.26136      0.00000     0.73714    0.00150     0.73864
      H   25    0.18255      0.00000     0.79639    0.02105     0.81745
      H   26    0.26367      0.00000     0.73557    0.00077     0.73633
      H   27    0.24215      0.00000     0.75685    0.00100     0.75785
      H   28    0.24269      0.00000     0.75633    0.00098     0.75731
      H   29    0.23711      0.00000     0.75601    0.00688     0.76289
      H   30    0.25299      0.00000     0.74601    0.00100     0.74701
      H   31    0.25214      0.00000     0.74686    0.00100     0.74786
 =======================================================================
   * Total *   -0.00000     23.99181    69.76311    0.24508    94.00000

 Normal termination of Gaussian 09 at Tue Oct  5 17:26:27 2021.
