 Gaussian 09, Revision A.02,

 -----------------------------------
 #p opt b3lyp/6-31G* scf=(xqc,tight)
 -----------------------------------

 --------------------------
 COc1cccc(c1)C(=O)OC_conf_0
 --------------------------
 Symbolic Z-matrix:
 Charge =  0 Multiplicity = 1

 SCF Done:  E(RB3LYP) =  -574.646474755     A.U. after   15 cycles
 SCF Done:  E(RB3LYP) =  -574.649137505     A.U. after   13 cycles
 SCF Done:  E(RB3LYP) =  -574.649030584     A.U. after   13 cycles
 SCF Done:  E(RB3LYP) =  -574.649723331     A.U. after   12 cycles
 SCF Done:  E(RB3LYP) =  -574.650354797     A.U. after   12 cycles
 SCF Done:  E(RB3LYP) =  -574.650677492     A.U. after   13 cycles
 SCF Done:  E(RB3LYP) =  -574.650759814     A.U. after   12 cycles
 SCF Done:  E(RB3LYP) =  -574.650793612     A.U. after   10 cycles
 SCF Done:  E(RB3LYP) =  -574.650827304     A.U. after   10 cycles
 SCF Done:  E(RB3LYP) =  -574.650833595     A.U. after   15 cycles
 SCF Done:  E(RB3LYP) =  -574.650834238     A.U. after    8 cycles
 Optimization completed.
    -- Stationary point found.
 Normal termination of Gaussian 09 at Wed Sep 29 01:25:18 2021.

 ----------------------------------------------------------------------
 #p freq b3lyp/6-31G* volume NMR pop=NPA density=current Geom=AllCheck
 Guess=Read
 ----------------------------------------------------------------------

 COc1cccc(c1)C(=O)OC_conf_0
 --------------------------
 Redundant internal coordinates taken from checkpoint file:
 C9H10O3_cd0a_conf_0.chk
 Charge =  0 Multiplicity = 1

 SCF Done:  E(RB3LYP) =  -574.650834238     A.U. after    1 cycles

  1  C    Isotropic =   137.2408   Anisotropy =    65.4272

  2  O    Isotropic =   236.6372   Anisotropy =    78.9659

  3  C    Isotropic =    38.9899   Anisotropy =   125.3895

  4  C    Isotropic =    82.3650   Anisotropy =   149.7507

  5  C    Isotropic =    67.3364   Anisotropy =   163.7158

  6  C    Isotropic =    72.5350   Anisotropy =   165.6039

  7  C    Isotropic =    64.6349   Anisotropy =   145.5320

  8  C    Isotropic =    76.3633   Anisotropy =   140.8623

  9  C    Isotropic =    32.3003   Anisotropy =    75.7074

 10  O    Isotropic =   -48.2540   Anisotropy =   579.1071

 11  O    Isotropic =   166.5133   Anisotropy =   132.0167

 12  C    Isotropic =   139.0543   Anisotropy =    62.4543

 13  H    Isotropic =    28.2571   Anisotropy =     7.9879

 14  H    Isotropic =    28.6426   Anisotropy =     8.1700

 15  H    Isotropic =    28.6404   Anisotropy =     8.1734

 16  H    Isotropic =    25.6698   Anisotropy =     7.2388

 17  H    Isotropic =    24.9937   Anisotropy =     4.8635

 18  H    Isotropic =    24.5028   Anisotropy =     6.6043

 19  H    Isotropic =    24.8233   Anisotropy =     9.4606

 20  H    Isotropic =    28.7149   Anisotropy =     7.2085

 21  H    Isotropic =    28.3323   Anisotropy =     8.3957

 22  H    Isotropic =    28.3329   Anisotropy =     8.3967

  Exact polarizability: 147.680  -0.789 111.795  -0.003   0.004  49.079
 Approx polarizability: 203.948  -9.740 190.256  -0.009   0.017  72.196

                     1                      2                      3
                     A                      A                      A
 Frequencies --    51.6672                74.0727               114.5977
 Red. masses --     5.4959                 3.0955                 2.3496
 Frc consts  --     0.0086                 0.0100                 0.0182
 IR Inten    --     1.7171                 5.0707                 0.0687

                     4                      5                      6
                     A                      A                      A
 Frequencies --   125.9441               138.5667               207.0368
 Red. masses --     4.2368                 1.3118                 2.6543
 Frc consts  --     0.0396                 0.0148                 0.0670
 IR Inten    --     1.6223                 0.0360                 2.4806

                     7                      8                      9
                     A                      A                      A
 Frequencies --   216.8691               254.8713               280.4318
 Red. masses --     2.2700                 3.4409                 1.7326
 Frc consts  --     0.0629                 0.1317                 0.0803
 IR Inten    --     2.4395                 0.5266                 0.5695

                    10                     11                     12
                     A                      A                      A
 Frequencies --   320.4980               353.9350               407.8086
 Red. masses --     3.8953                 7.1684                 5.7426
 Frc consts  --     0.2357                 0.5291                 0.5627
 IR Inten    --    11.6440                 5.7282                 8.5008

                    13                     14                     15
                     A                      A                      A
 Frequencies --   448.5712               520.2193               553.7678
 Red. masses --     3.3597                 5.8713                 4.9284
 Frc consts  --     0.3983                 0.9362                 0.8905
 IR Inten    --     0.0103                 1.2762                 3.2114

                    16                     17                     18
                     A                      A                      A
 Frequencies --   577.0381               686.0522               691.5362
 Red. masses --     4.6893                 6.7167                 2.6877
 Frc consts  --     0.9200                 1.8626                 0.7573
 IR Inten    --     4.6846                 2.8308                 2.1058

                    19                     20                     21
                     A                      A                      A
 Frequencies --   762.5294               797.2518               814.6146
 Red. masses --     3.2186                 5.7336                 1.7302
 Frc consts  --     1.1026                 2.1472                 0.6765
 IR Inten    --    50.6758                22.0884                11.2788

                    22                     23                     24
                     A                      A                      A
 Frequencies --   905.5794               906.1522               916.1808
 Red. masses --     5.0096                 1.4417                 1.4447
 Frc consts  --     2.4205                 0.6975                 0.7145
 IR Inten    --     0.1997                 6.4349                 6.0303

                    25                     26                     27
                     A                      A                      A
 Frequencies --   981.6615              1011.4993              1014.4671
 Red. masses --     1.2729                 5.3080                 6.2463
 Frc consts  --     0.7227                 3.1997                 3.7874
 IR Inten    --     0.4659                 4.2667                 4.3382

                    28                     29                     30
                     A                      A                      A
 Frequencies --  1090.2168              1119.0659              1136.3972
 Red. masses --     3.2118                 1.9793                 2.1985
 Frc consts  --     2.2492                 1.4604                 1.6727
 IR Inten    --    67.0680                85.7570                74.8485

                    31                     32                     33
                     A                      A                      A
 Frequencies --  1185.5137              1185.7936              1202.1910
 Red. masses --     1.2706                 1.2725                 1.1336
 Frc consts  --     1.0521                 1.0542                 0.9653
 IR Inten    --     0.5948                 0.9890                 9.2106

                    34                     35                     36
                     A                      A                      A
 Frequencies --  1216.7511              1224.8263              1268.2929
 Red. masses --     1.4172                 1.5343                 3.0260
 Frc consts  --     1.2362                 1.3561                 2.8679
 IR Inten    --     3.6377                27.2025               224.2270

                    37                     38                     39
                     A                      A                      A
 Frequencies --  1325.8418              1333.0468              1375.7119
 Red. masses --     4.4029                 1.7021                 6.0389
 Frc consts  --     4.5601                 1.7821                 6.7338
 IR Inten    --   480.8729                93.2408                31.1778

                    40                     41                     42
                     A                      A                      A
 Frequencies --  1484.8473              1492.3576              1503.5507
 Red. masses --     2.4280                 1.2013                 1.4169
 Frc consts  --     3.1540                 1.5764                 1.8872
 IR Inten    --    40.4284                19.9782                 8.0274

                    43                     44                     45
                     A                      A                      A
 Frequencies --  1512.1887              1521.2119              1525.1482
 Red. masses --     1.0482                 1.0478                 1.0503
 Frc consts  --     1.4123                 1.4286                 1.4394
 IR Inten    --     5.6701                 5.6251                 9.4422

                    46                     47                     48
                     A                      A                      A
 Frequencies --  1534.6895              1538.5689              1641.2100
 Red. masses --     1.0881                 2.2623                 5.7774
 Frc consts  --     1.5099                 3.1552                 9.1688
 IR Inten    --    31.2467                24.7186                93.2184

                    49                     50                     51
                     A                      A                      A
 Frequencies --  1665.5725              1801.3822              3025.1258
 Red. masses --     6.0463                11.6796                 1.0349
 Frc consts  --     9.8825                22.3301                 5.5801
 IR Inten    --    34.1452               213.3723                54.0485

                    52                     53                     54
                     A                      A                      A
 Frequencies --  3074.1763              3084.1059              3148.0279
 Red. masses --     1.0295                 1.1068                 1.1074
 Frc consts  --     5.7326                 6.2026                 6.4661
 IR Inten    --    38.5745                43.8048                22.0863

                    55                     56                     57
                     A                      A                      A
 Frequencies --  3159.0109              3179.7307              3195.3849
 Red. masses --     1.0995                 1.1070                 1.0885
 Frc consts  --     6.4648                 6.5947                 6.5484
 IR Inten    --    24.7915                17.6740                12.9233

                    58                     59                     60
                     A                      A                      A
 Frequencies --  3227.6404              3236.1319              3244.1772
 Red. masses --     1.0909                 1.0932                 1.0909
 Frc consts  --     6.6959                 6.7451                 6.7647
 IR Inten    --    10.1129                 3.9355                 0.4877

 - Thermochemistry -
 -------------------
 Temperature   298.150 Kelvin.  Pressure   1.00000 Atm.
 Atom     1 has atomic number  6 and mass  12.00000

 Molecular mass:   166.06299 amu.
 Principal axes and moments of inertia in atomic units:
                           1         2         3
     Eigenvalues --   922.224723469.046594368.35572
           X            0.99991   0.01364   0.00001
           Y           -0.01364   0.99991  -0.00001
           Z           -0.00001   0.00001   1.00000
 This molecule is an asymmetric top.
 Rotational symmetry number  1.
 Warning -- assumption of classical behavior for rotation
           may cause significant error
 Rotational temperatures (Kelvin)      0.09392     0.02497     0.01983
 Rotational constants (GHZ):           1.95694     0.52024     0.41314
 Zero-point vibrational energy     464099.1 (Joules/Mol)
                                  110.92234 (Kcal/Mol)
 Warning -- explicit consideration of  16 degrees of freedom as
           vibrations may cause significant error
 Vibrational temperatures:     74.34   106.57   164.88   181.21   199.37
          (Kelvin)            297.88   312.03   366.70   403.48   461.12
                              509.23   586.74   645.39   748.48   796.75
                              830.23   987.07   994.97  1097.11  1147.07
                             1172.05  1302.93  1303.75  1318.18  1412.39
                             1455.32  1459.59  1568.58  1610.08  1635.02
                             1705.69  1706.09  1729.68  1750.63  1762.25
                             1824.79  1907.59  1917.95  1979.34  2136.36
                             2147.17  2163.27  2175.70  2188.68  2194.35
                             2208.07  2213.65  2361.33  2396.38  2591.78
                             4352.48  4423.05  4437.33  4529.30  4545.11
                             4574.92  4597.44  4643.85  4656.07  4667.64

 Zero-point correction=                           0.176766 (Hartree/Particle)
 Thermal correction to Energy=                    0.188152
 Thermal correction to Enthalpy=                  0.189097
 Thermal correction to Gibbs Free Energy=         0.138866
 Sum of electronic and zero-point Energies=           -574.474068
 Sum of electronic and thermal Energies=              -574.462682
 Sum of electronic and thermal Enthalpies=            -574.461738
 Sum of electronic and thermal Free Energies=         -574.511969

                     E (Thermal)             CV                S
                      KCal/Mol        Cal/Mol-Kelvin    Cal/Mol-Kelvin
 Total                  118.067             41.566            105.720
 Electronic               0.000              0.000              0.000
 Translational            0.889              2.981             41.230
 Rotational               0.889              2.981             31.014
 Vibrational            116.290             35.604             33.476
 Vibration     1          0.596              1.977              4.753
 Vibration     2          0.599              1.966              4.042
 Vibration     3          0.608              1.937              3.190
 Vibration     4          0.611              1.927              3.007
 Vibration     5          0.614              1.915              2.824
 Vibration     6          0.641              1.830              2.070
 Vibration     7          0.646              1.815              1.985
 Vibration     8          0.665              1.755              1.697
 Vibration     9          0.680              1.710              1.531
 Vibration    10          0.706              1.634              1.308
 Vibration    11          0.730              1.567              1.149
 Vibration    12          0.772              1.453              0.934
 Vibration    13          0.808              1.364              0.800
 Vibration    14          0.875              1.205              0.609
 Vibration    15          0.909              1.131              0.536
 Vibration    16          0.934              1.081              0.491

 Normal termination of Gaussian 09 at Wed Sep 29 01:56:40 2021.
 Gaussian 09:  AM64L-G09RevA.02 11-Jun-2009

 ----------------------------------------------------------------------
 #p TD(NStates=10, Root=1) b3lyp/6-31G* volume pop=NPA density=current
 Geom=AllCheck Guess=Read
 ----------------------------------------------------------------------

 COc1cccc(c1)C(=O)OC_conf_0
 --------------------------
 Redundant internal coordinates taken from checkpoint file:
 C9H10O3_cd0a_conf_0.chk
 Charge =  0 Multiplicity = 1

                         Standard orientation:
 ---------------------------------------------------------------------
 Center     Atomic      Atomic             Coordinates (Angstroms)
 Number     Number       Type             X           Y           Z
 ---------------------------------------------------------------------
      1          6           0        3.944553   -1.155303    0.000854
      2          8           0        2.542694   -1.372746   -0.000773
      3          6           0        1.718835   -0.283854   -0.000402
      4          6           0        2.156654    1.046174   -0.000252
      5          6           0        1.215960    2.082426    0.000037
      6          6           0       -0.146224    1.811011    0.000134
      7          6           0       -0.580530    0.476059   -0.000069
      8          6           0        0.346750   -0.566528   -0.000351
      9          6           0       -2.050681    0.224190    0.000027
     10          8           0       -2.897778    1.096066    0.000105
     11          8           0       -2.353035   -1.095157    0.000078
     12          6           0       -3.754867   -1.400571    0.000150
     13          1           0        4.400703   -2.146893    0.001621
     14          1           0        4.267820   -0.607428    0.896041
     15          1           0        4.270000   -0.607860   -0.893816
     16          1           0        3.214199    1.284282   -0.000441
     17          1           0        1.563832    3.111817    0.000127
     18          1           0       -0.884844    2.604560    0.000380
     19          1           0        0.024585   -1.600810   -0.000544
     20          1           0       -3.816646   -2.489355   -0.000047
     21          1           0       -4.238819   -0.987425   -0.889006
     22          1           0       -4.238580   -0.987822    0.889631
 ---------------------------------------------------------------------

 SCF Done:  E(RB3LYP) =  -574.650834238     A.U. after    2 cycles

 Excitation energies and oscillator strengths:

 Excited State   1:      Singlet-A      4.4476 eV  278.77 nm  f=0.0448  <S**2>=0.000
      43 -> 46         0.19083
      44 -> 45         0.67557
 This state for optimization and/or second-order correction.
 Total Energy, E(TD-HF/TD-KS) =  -574.487388178
 Copying the excited state density for this state as the 1-particle RhoCI density.

 Excited State   2:      Singlet-A      4.8620 eV  255.01 nm  f=0.0003  <S**2>=0.000
      42 -> 45         0.69412
      42 -> 47         0.12287

 Excited State   3:      Singlet-A      5.4732 eV  226.53 nm  f=0.0860  <S**2>=0.000
      43 -> 45         0.58746
      44 -> 45         0.10170
      44 -> 46        -0.36328

 Excited State   4:      Singlet-A      6.1391 eV  201.96 nm  f=0.5744  <S**2>=0.000
      41 -> 45        -0.16497
      43 -> 45         0.34416
      43 -> 47         0.12657
      44 -> 46         0.55746
      44 -> 47        -0.10015

 Excited State   5:      Singlet-A      6.4930 eV  190.95 nm  f=0.0682  <S**2>=0.000
      40 -> 45         0.13243
      41 -> 45         0.64452
      43 -> 45         0.11269
      43 -> 46        -0.14594
      44 -> 46         0.13465

 Excited State   6:      Singlet-A      6.5764 eV  188.53 nm  f=0.0814  <S**2>=0.000
      40 -> 45        -0.28110
      41 -> 45         0.19005
      43 -> 46         0.52588
      44 -> 45        -0.12688
      44 -> 47        -0.26175

 Excited State   7:      Singlet-A      6.5952 eV  187.99 nm  f=0.0001  <S**2>=0.000
      42 -> 46         0.69972

 Excited State   8:      Singlet-A      6.9499 eV  178.40 nm  f=0.0002  <S**2>=0.000
      37 -> 45         0.13840
      39 -> 45         0.68359

 Excited State   9:      Singlet-A      6.9769 eV  177.71 nm  f=0.1861  <S**2>=0.000
      40 -> 45         0.59840
      43 -> 46         0.17339
      44 -> 47        -0.30896

 Excited State  10:      Singlet-A      7.3402 eV  168.91 nm  f=0.0001  <S**2>=0.000
      38 -> 45         0.69128

 The electronic state is 1-A.
 Alpha  occ. eigenvalues --  -19.18905 -19.18230 -19.12972 -10.31090 -10.25337
 Alpha  occ. eigenvalues --  -10.24563 -10.23775 -10.20350 -10.19730 -10.19647
 Alpha  occ. eigenvalues --  -10.19221 -10.18800  -1.09730  -1.06839  -1.00749
 Alpha  occ. eigenvalues --   -0.85826  -0.77132  -0.76126  -0.71945  -0.69889
 Alpha  occ. eigenvalues --   -0.63178  -0.60242  -0.56312  -0.54026  -0.49678
 Alpha  occ. eigenvalues --   -0.48726  -0.48140  -0.47755  -0.47255  -0.45899
 Alpha  occ. eigenvalues --   -0.43542  -0.42010  -0.41582  -0.40171  -0.37476
 Alpha  occ. eigenvalues --   -0.37126  -0.37028  -0.35210  -0.33301  -0.32170
 Alpha  occ. eigenvalues --   -0.29781  -0.26969  -0.25742  -0.22466
 Alpha virt. eigenvalues --   -0.04023   0.00415   0.06684   0.08981   0.10478
 Alpha virt. eigenvalues --    0.11741   0.12709   0.13707   0.14837   0.15775
 Alpha virt. eigenvalues --    0.16177   0.16803   0.16893   0.17735   0.18649

 Mulliken atomic charges:
              1
     1  C   -0.239159
     2  O   -0.425929
     3  C    0.366443
     4  C   -0.195052
     5  C   -0.143797
     6  C   -0.129119
     7  C    0.052311
     8  C   -0.215512
     9  C    0.518538
    10  O   -0.550049
    11  O   -0.491016
    12  C   -0.200238
    13  H    0.191652
    14  H    0.185566
    15  H    0.185561
    16  H    0.130438
    17  H    0.145857
    18  H    0.182267
    19  H    0.171980
    20  H    0.144011
    21  H    0.157634
    22  H    0.157614
 Sum of Mulliken atomic charges =  -0.00000

 Dipole moment (field-independent basis, Debye):
    X=              7.0364    Y=             -1.4230    Z=              0.0016  Tot=              7.1788
 Quadrupole moment (field-independent basis, Debye-Ang):
   XX=            -55.6822   YY=            -65.7901   ZZ=            -70.4692
   XY=              4.9366   XZ=              0.0062   YZ=             -0.0023

 Summary of Natural Population Analysis:

                                       Natural Population
                Natural  -----------------------------------------------
    Atom  No    Charge         Core      Valence    Rydberg      Total
 -----------------------------------------------------------------------
      C    1   -0.33107      1.99941     4.31753    0.01413     6.33107
      O    2   -0.39442      1.99975     6.38315    0.01152     8.39442
      C    3    0.35189      1.99879     3.62685    0.02247     5.64811
      C    4   -0.36103      1.99905     4.34719    0.01478     6.36103
      C    5   -0.21570      1.99914     4.20036    0.01620     6.21570
      C    6   -0.11300      1.99906     4.09808    0.01586     6.11300
      C    7   -0.16282      1.99896     4.14535    0.01851     6.16282
      C    8   -0.23478      1.99902     4.21829    0.01747     6.23478
      C    9    0.68582      1.99937     3.26928    0.04553     5.31418
      O   10   -0.66515      1.99979     6.64636    0.01899     8.66515
      O   11   -0.57502      1.99975     6.56469    0.01059     8.57502
      C   12   -0.31391      1.99943     4.30028    0.01421     6.31391
      H   13    0.23946      0.00000     0.76007    0.00047     0.76054
      H   14    0.22625      0.00000     0.77228    0.00146     0.77375
      H   15    0.22626      0.00000     0.77229    0.00146     0.77374
      H   16    0.23400      0.00000     0.76504    0.00096     0.76600
      H   17    0.24168      0.00000     0.75749    0.00083     0.75832
      H   18    0.26303      0.00000     0.73498    0.00199     0.73697
      H   19    0.26428      0.00000     0.73422    0.00150     0.73572
      H   20    0.21027      0.00000     0.78904    0.00070     0.78973
      H   21    0.21198      0.00000     0.78621    0.00181     0.78802
      H   22    0.21197      0.00000     0.78622    0.00181     0.78803
 =======================================================================
   * Total *   -0.00000     23.99154    63.77523    0.23323    88.00000

 Normal termination of Gaussian 09 at Wed Sep 29 04:15:19 2021.
