 Gaussian 09, Revision A.02,

 -----------------------------------
 #p opt b3lyp/6-31G* scf=(xqc,tight)
 -----------------------------------

 ------------------------
 COc1ccc(cc1)N(C)C_conf_0
 ------------------------
 Symbolic Z-matrix:
 Charge =  0 Multiplicity = 1

 SCF Done:  E(RB3LYP) =  -480.734427543     A.U. after   14 cycles
 SCF Done:  E(RB3LYP) =  -480.737408136     A.U. after   12 cycles
 SCF Done:  E(RB3LYP) =  -480.737811752     A.U. after   11 cycles
 SCF Done:  E(RB3LYP) =  -480.737995753     A.U. after   11 cycles
 SCF Done:  E(RB3LYP) =  -480.738083176     A.U. after   11 cycles
 SCF Done:  E(RB3LYP) =  -480.738156356     A.U. after   10 cycles
 SCF Done:  E(RB3LYP) =  -480.738202961     A.U. after   10 cycles
 SCF Done:  E(RB3LYP) =  -480.738223779     A.U. after   10 cycles
 SCF Done:  E(RB3LYP) =  -480.738232170     A.U. after   10 cycles
 SCF Done:  E(RB3LYP) =  -480.738233649     A.U. after    8 cycles
 SCF Done:  E(RB3LYP) =  -480.738234083     A.U. after    7 cycles
 SCF Done:  E(RB3LYP) =  -480.738234607     A.U. after    8 cycles
 SCF Done:  E(RB3LYP) =  -480.738234859     A.U. after    7 cycles
 SCF Done:  E(RB3LYP) =  -480.738234924     A.U. after    7 cycles
 Optimization completed.
    -- Stationary point found.
 Normal termination of Gaussian 09 at Tue Sep 28 21:40:13 2021.

 ----------------------------------------------------------------------
 #p freq b3lyp/6-31G* volume NMR pop=NPA density=current Geom=AllCheck
 Guess=Read
 ----------------------------------------------------------------------

 COc1ccc(cc1)N(C)C_conf_0
 ------------------------
 Redundant internal coordinates taken from checkpoint file:
 C9H13NO_84eb_conf_0.chk
 Charge =  0 Multiplicity = 1

 SCF Done:  E(RB3LYP) =  -480.738234924     A.U. after    1 cycles

  1  C    Isotropic =   137.5341   Anisotropy =    65.5594

  2  O    Isotropic =   239.2181   Anisotropy =    69.3142

  3  C    Isotropic =    38.1754   Anisotropy =   123.6956

  4  C    Isotropic =    97.0783   Anisotropy =   128.5163

  5  C    Isotropic =    66.9365   Anisotropy =   161.5071

  6  C    Isotropic =    90.4783   Anisotropy =   130.9478

  7  C    Isotropic =    49.1846   Anisotropy =   147.8766

  8  C    Isotropic =    94.7243   Anisotropy =   109.1617

  9  N    Isotropic =   204.0531   Anisotropy =    83.2221

 10  C    Isotropic =   149.9102   Anisotropy =    51.9863

 11  C    Isotropic =   149.8357   Anisotropy =    52.7521

 12  H    Isotropic =    28.6861   Anisotropy =     8.2299

 13  H    Isotropic =    28.4025   Anisotropy =     8.2168

 14  H    Isotropic =    28.6705   Anisotropy =     8.2774

 15  H    Isotropic =    26.3991   Anisotropy =     6.2585

 16  H    Isotropic =    25.2703   Anisotropy =     4.7612

 17  H    Isotropic =    26.2053   Anisotropy =     8.0915

 18  H    Isotropic =    26.4239   Anisotropy =     9.9989

 19  H    Isotropic =    29.0203   Anisotropy =     8.6614

 20  H    Isotropic =    29.3425   Anisotropy =     8.7972

 21  H    Isotropic =    29.7585   Anisotropy =     7.9028

 22  H    Isotropic =    28.9799   Anisotropy =     9.0049

 23  H    Isotropic =    29.7539   Anisotropy =     7.9536

 24  H    Isotropic =    29.3569   Anisotropy =     9.0912

  Exact polarizability: 152.848  -2.445 111.050   0.169   0.241  55.351
 Approx polarizability: 211.508  -2.321 177.740  -1.942   1.309  81.341

                     1                      2                      3
                     A                      A                      A
 Frequencies --    56.9896                80.0701               106.7206
 Red. masses --     2.7901                 2.9802                 2.6204
 Frc consts  --     0.0053                 0.0113                 0.0176
 IR Inten    --     1.2572                 7.0191                 5.5899

                     4                      5                      6
                     A                      A                      A
 Frequencies --   155.2551               168.4698               208.3181
 Red. masses --     1.4052                 2.0650                 1.7645
 Frc consts  --     0.0200                 0.0345                 0.0451
 IR Inten    --     0.4291                 0.7147                 0.7867

                     7                      8                      9
                     A                      A                      A
 Frequencies --   228.7642               275.7490               284.5295
 Red. masses --     1.3940                 2.1620                 2.1680
 Frc consts  --     0.0430                 0.0969                 0.1034
 IR Inten    --     1.1903                 2.4555                 1.8959

                    10                     11                     12
                     A                      A                      A
 Frequencies --   307.8333               366.4498               428.6861
 Red. masses --     2.5172                 3.2056                 3.4144
 Frc consts  --     0.1405                 0.2536                 0.3697
 IR Inten    --     1.5322                 0.9133                 0.7663

                    13                     14                     15
                     A                      A                      A
 Frequencies --   468.0798               519.8450               558.8640
 Red. masses --     3.0948                 4.5360                 3.2605
 Frc consts  --     0.3995                 0.7222                 0.6000
 IR Inten    --     1.8886                 1.1884                 1.4449

                    16                     17                     18
                     A                      A                      A
 Frequencies --   586.7398               638.5633               697.8190
 Red. masses --     4.5130                 4.2713                 2.0358
 Frc consts  --     0.9154                 1.0262                 0.5841
 IR Inten    --     9.2740                 0.8932                 6.5485

                    19                     20                     21
                     A                      A                      A
 Frequencies --   723.0114               758.5543               826.0380
 Red. masses --     5.7519                 1.4083                 1.5273
 Frc consts  --     1.7716                 0.4774                 0.6140
 IR Inten    --     3.7114                37.1338                 4.3020

                    22                     23                     24
                     A                      A                      A
 Frequencies --   843.6596               878.2766               948.7548
 Red. masses --     1.6425                 4.8327                 1.2397
 Frc consts  --     0.6888                 2.1964                 0.6574
 IR Inten    --    34.8756                 6.1428                 0.0700

                    25                     26                     27
                     A                      A                      A
 Frequencies --   990.8017              1015.0991              1090.4049
 Red. masses --     3.4164                 4.1797                 1.5597
 Frc consts  --     1.9760                 2.5375                 1.0926
 IR Inten    --     2.6092                16.5121                29.2496

                    28                     29                     30
                     A                      A                      A
 Frequencies --  1100.2186              1133.3997              1152.1422
 Red. masses --     3.2264                 1.7158                 1.2352
 Frc consts  --     2.3010                 1.2986                 0.9661
 IR Inten    --    53.3514                 3.4793                 2.8892

                    31                     32                     33
                     A                      A                      A
 Frequencies --  1156.2174              1185.3606              1191.4761
 Red. masses --     1.3615                 1.2704                 1.5915
 Frc consts  --     1.0724                 1.0517                 1.3311
 IR Inten    --    56.1624                 0.7629                89.4331

                    34                     35                     36
                     A                      A                      A
 Frequencies --  1214.4817              1222.4234              1268.5926
 Red. masses --     1.1479                 1.3756                 2.4768
 Frc consts  --     0.9976                 1.2111                 2.3485
 IR Inten    --    19.8894                 6.3299                57.2653

                    37                     38                     39
                     A                      A                      A
 Frequencies --  1299.4082              1353.7521              1377.3787
 Red. masses --     3.6069                 1.6994                 5.2563
 Frc consts  --     3.5882                 1.8349                 5.8753
 IR Inten    --   223.9278                 0.5126                50.2030

                    40                     41                     42
                     A                      A                      A
 Frequencies --  1394.8038              1471.1042              1494.8585
 Red. masses --     3.1366                 1.1873                 1.4284
 Frc consts  --     3.5953                 1.5139                 1.8806
 IR Inten    --    57.3235                 4.8216                20.9334

                    43                     44                     45
                     A                      A                      A
 Frequencies --  1500.7781              1511.5332              1517.2663
 Red. masses --     1.5276                 1.0512                 1.1263
 Frc consts  --     2.0272                 1.4151                 1.5276
 IR Inten    --    28.9026                 3.7397                 4.8038

                    46                     47                     48
                     A                      A                      A
 Frequencies --  1520.0545              1521.5184              1537.4683
 Red. masses --     1.0502                 1.3929                 1.0625
 Frc consts  --     1.4297                 1.8999                 1.4798
 IR Inten    --     4.4831                27.0616                25.8570

                    49                     50                     51
                     A                      A                      A
 Frequencies --  1545.0864              1554.9214              1561.2220
 Red. masses --     1.1481                 1.8550                 1.1646
 Frc consts  --     1.6149                 2.6425                 1.6725
 IR Inten    --     3.2558                46.4076               113.7821

                    52                     53                     54
                     A                      A                      A
 Frequencies --  1630.6332              1673.0331              2989.3866
 Red. masses --     5.2690                 5.8007                 1.0525
 Frc consts  --     8.2545                 9.5662                 5.5416
 IR Inten    --    93.3950               276.7985                73.6863

                    55                     56                     57
                     A                      A                      A
 Frequencies --  2997.9523              3022.4075              3074.0520
 Red. masses --     1.0569                 1.0346                 1.0853
 Frc consts  --     5.5969                 5.5685                 6.0426
 IR Inten    --    89.3352                60.5088                25.6778

                    58                     59                     60
                     A                      A                      A
 Frequencies --  3076.3918              3079.3481              3134.8065
 Red. masses --     1.0857                 1.1065                 1.0992
 Frc consts  --     6.0539                 6.1816                 6.3640
 IR Inten    --    46.8929                49.4219                 3.3542

                    61                     62                     63
                     A                      A                      A
 Frequencies --  3146.7688              3150.5922              3183.6327
 Red. masses --     1.0962                 1.0996                 1.0885
 Frc consts  --     6.3952                 6.4311                 6.4999
 IR Inten    --    48.5836                30.1725                18.2882

                    64                     65                     66
                     A                      A                      A
 Frequencies --  3232.5189              3237.2648              3244.1932
 Red. masses --     1.0903                 1.0917                 1.0889
 Frc consts  --     6.7124                 6.7405                 6.7522
 IR Inten    --    15.9976                 9.2862                 4.3426

 - Thermochemistry -
 -------------------
 Temperature   298.150 Kelvin.  Pressure   1.00000 Atm.
 Atom     1 has atomic number  6 and mass  12.00000

 Molecular mass:   151.09971 amu.
 Principal axes and moments of inertia in atomic units:
                           1         2         3
     Eigenvalues --   776.815892717.198383455.13037
           X            0.99996  -0.00861   0.00171
           Y            0.00861   0.99996  -0.00036
           Z           -0.00171   0.00037   1.00000
 This molecule is an asymmetric top.
 Rotational symmetry number  1.
 Warning -- assumption of classical behavior for rotation
           may cause significant error
 Rotational temperatures (Kelvin)      0.11150     0.03188     0.02507
 Rotational constants (GHZ):           2.32325     0.66419     0.52234
 Zero-point vibrational energy     543528.0 (Joules/Mol)
                                  129.90632 (Kcal/Mol)
 Warning -- explicit consideration of  16 degrees of freedom as
           vibrations may cause significant error
 Vibrational temperatures:     82.00   115.20   153.55   223.38   242.39
          (Kelvin)            299.72   329.14   396.74   409.37   442.90
                              527.24   616.78   673.46   747.94   804.08
                              844.19   918.75  1004.00  1040.25  1091.39
                             1188.48  1213.84  1263.64  1365.04  1425.54
                             1460.50  1568.85  1582.97  1630.71  1657.67
                             1663.54  1705.47  1714.27  1747.37  1758.79
                             1825.22  1869.56  1947.74  1981.74  2006.81
                             2116.59  2150.77  2159.28  2174.76  2183.01
                             2187.02  2189.12  2212.07  2223.03  2237.18
                             2246.25  2346.11  2407.12  4301.06  4313.38
                             4348.56  4422.87  4426.24  4430.49  4510.28
                             4527.49  4532.99  4580.53  4650.87  4657.70
                             4667.66

 Zero-point correction=                           0.207019 (Hartree/Particle)
 Thermal correction to Energy=                    0.218261
 Thermal correction to Enthalpy=                  0.219205
 Thermal correction to Gibbs Free Energy=         0.169993
 Sum of electronic and zero-point Energies=           -480.531216
 Sum of electronic and thermal Energies=              -480.519974
 Sum of electronic and thermal Enthalpies=            -480.519029
 Sum of electronic and thermal Free Energies=         -480.568242

                     E (Thermal)             CV                S
                      KCal/Mol        Cal/Mol-Kelvin    Cal/Mol-Kelvin
 Total                  136.961             41.800            103.577
 Electronic               0.000              0.000              0.000
 Translational            0.889              2.981             40.948
 Rotational               0.889              2.981             30.368
 Vibrational            135.184             35.838             32.261
 Vibration     1          0.596              1.975              4.559
 Vibration     2          0.600              1.963              3.889
 Vibration     3          0.606              1.944              3.328
 Vibration     4          0.620              1.897              2.607
 Vibration     5          0.625              1.881              2.452
 Vibration     6          0.642              1.828              2.058
 Vibration     7          0.651              1.797              1.889
 Vibration     8          0.677              1.718              1.560
 Vibration     9          0.683              1.702              1.506
 Vibration    10          0.698              1.659              1.374
 Vibration    11          0.739              1.541              1.095
 Vibration    12          0.790              1.408              0.863
 Vibration    13          0.825              1.321              0.743
 Vibration    14          0.875              1.206              0.610
 Vibration    15          0.914              1.120              0.526
 Vibration    16          0.944              1.060              0.473

 Normal termination of Gaussian 09 at Tue Sep 28 22:09:46 2021.
 Gaussian 09:  AM64L-G09RevA.02 11-Jun-2009

 ----------------------------------------------------------------------
 #p TD(NStates=10, Root=1) b3lyp/6-31G* volume pop=NPA density=current
 Geom=AllCheck Guess=Read
 ----------------------------------------------------------------------

 COc1ccc(cc1)N(C)C_conf_0
 ------------------------
 Redundant internal coordinates taken from checkpoint file:
 C9H13NO_84eb_conf_0.chk
 Charge =  0 Multiplicity = 1

                         Standard orientation:
 ---------------------------------------------------------------------
 Center     Atomic      Atomic             Coordinates (Angstroms)
 Number     Number       Type             X           Y           Z
 ---------------------------------------------------------------------
      1          6           0       -3.795767   -0.648711    0.044592
      2          8           0       -2.455946   -1.106347    0.000196
      3          6           0       -1.455369   -0.170841   -0.013689
      4          6           0       -1.667055    1.211143    0.012972
      5          6           0       -0.544304    2.043204    0.003841
      6          6           0        0.749221    1.539688   -0.034787
      7          6           0        0.967071    0.140388   -0.074906
      8          6           0       -0.161044   -0.699673   -0.050850
      9          7           0        2.253897   -0.388132   -0.147209
     10          6           0        2.440864   -1.816025    0.040284
     11          6           0        3.390808    0.481584    0.100773
     12          1           0       -3.995586   -0.064735    0.953212
     13          1           0       -4.419559   -1.545041    0.049004
     14          1           0       -4.045842   -0.038751   -0.834006
     15          1           0       -2.662518    1.636624    0.045486
     16          1           0       -0.686833    3.120839    0.031561
     17          1           0        1.582928    2.230519   -0.034440
     18          1           0       -0.071822   -1.778248   -0.059594
     19          1           0        1.889296   -2.383873   -0.717895
     20          1           0        2.112874   -2.168068    1.032429
     21          1           0        3.499993   -2.056177   -0.076051
     22          1           0        3.428634    1.296989   -0.630944
     23          1           0        4.311202   -0.096356   -0.007387
     24          1           0        3.380981    0.929441    1.108146
 ---------------------------------------------------------------------

 SCF Done:  E(RB3LYP) =  -480.738234924     A.U. after    1 cycles

 Excitation energies and oscillator strengths:

 Excited State   1:      Singlet-A      4.7612 eV  260.40 nm  f=0.0400  <S**2>=0.000
      40 -> 43         0.25068
      41 -> 42         0.63299
      41 -> 43         0.15589
 This state for optimization and/or second-order correction.
 Total Energy, E(TD-HF/TD-KS) =  -480.563262925
 Copying the excited state density for this state as the 1-particle RhoCI density.

 Excited State   2:      Singlet-A      5.4714 eV  226.61 nm  f=0.1140  <S**2>=0.000
      40 -> 42        -0.39718
      41 -> 42        -0.20348
      41 -> 43         0.54238

 Excited State   3:      Singlet-A      5.9535 eV  208.26 nm  f=0.2610  <S**2>=0.000
      39 -> 42        -0.19855
      39 -> 43        -0.13402
      40 -> 42         0.49461
      40 -> 43        -0.17337
      41 -> 43         0.40192

 Excited State   4:      Singlet-A      6.3322 eV  195.80 nm  f=0.5820  <S**2>=0.000
      39 -> 42         0.15901
      40 -> 42         0.23514
      40 -> 43         0.59807
      41 -> 42        -0.20158

 Excited State   5:      Singlet-A      6.5065 eV  190.55 nm  f=0.0073  <S**2>=0.000
      41 -> 44         0.70213

 Excited State   6:      Singlet-A      7.0484 eV  175.90 nm  f=0.0010  <S**2>=0.000
      40 -> 44        -0.16020
      41 -> 45         0.50033
      41 -> 46        -0.46210

 Excited State   7:      Singlet-A      7.2119 eV  171.92 nm  f=0.0164  <S**2>=0.000
      40 -> 44        -0.33108
      40 -> 45        -0.10186
      41 -> 45         0.30011
      41 -> 46         0.46177
      41 -> 47        -0.24682

 Excited State   8:      Singlet-A      7.3001 eV  169.84 nm  f=0.0025  <S**2>=0.000
      40 -> 44         0.56694
      41 -> 45         0.32574
      41 -> 46         0.16011
      41 -> 47        -0.13222

 Excited State   9:      Singlet-A      7.4497 eV  166.43 nm  f=0.2580  <S**2>=0.000
      39 -> 42         0.59867
      39 -> 43         0.18818
      40 -> 42         0.13053
      40 -> 43        -0.18076
      41 -> 47        -0.10836

 Excited State  10:      Singlet-A      7.4866 eV  165.61 nm  f=0.0105  <S**2>=0.000
      39 -> 42         0.12314
      41 -> 45         0.19375
      41 -> 46         0.18249
      41 -> 47         0.62545

 The electronic state is 1-A.
 Alpha  occ. eigenvalues --  -19.16543 -14.34492 -10.23326 -10.23219 -10.21756
 Alpha  occ. eigenvalues --  -10.21245 -10.21139 -10.17819 -10.16610 -10.16602
 Alpha  occ. eigenvalues --  -10.16404  -1.05089  -0.93802  -0.82760  -0.74548
 Alpha  occ. eigenvalues --   -0.73482  -0.71943  -0.68035  -0.65187  -0.58770
 Alpha  occ. eigenvalues --   -0.56388  -0.52667  -0.48428  -0.47476  -0.46912
 Alpha  occ. eigenvalues --   -0.45922  -0.45574  -0.44093  -0.41940  -0.40381
 Alpha  occ. eigenvalues --   -0.39803  -0.38929  -0.37965  -0.36443  -0.35770
 Alpha  occ. eigenvalues --   -0.34621  -0.31575  -0.31346  -0.26803  -0.20859
 Alpha  occ. eigenvalues --   -0.18298
 Alpha virt. eigenvalues --    0.01886   0.03499   0.08978   0.10906   0.11470
 Alpha virt. eigenvalues --    0.12280   0.13203   0.14609   0.15782   0.16647
 Alpha virt. eigenvalues --    0.17000   0.17216   0.17568   0.18027   0.19145

 Mulliken atomic charges:
              1
     1  C   -0.204106
     2  O   -0.506538
     3  C    0.335852
     4  C   -0.168190
     5  C   -0.200365
     6  C   -0.196145
     7  C    0.338962
     8  C   -0.283132
     9  N   -0.414115
    10  C   -0.319759
    11  C   -0.320287
    12  H    0.141596
    13  H    0.157703
    14  H    0.142023
    15  H    0.121383
    16  H    0.099213
    17  H    0.099556
    18  H    0.105970
    19  H    0.192894
    20  H    0.184063
    21  H    0.161818
    22  H    0.188521
    23  H    0.161858
    24  H    0.181223
 Sum of Mulliken atomic charges =  -0.00000

 Dipole moment (field-independent basis, Debye):
    X=              3.1399    Y=             -1.0872    Z=              0.3349  Tot=              3.3397
 Quadrupole moment (field-independent basis, Debye-Ang):
   XX=            -45.7811   YY=            -64.8249   ZZ=            -69.5749
   XY=             -3.2942   XZ=              0.4191   YZ=              0.0014

 Summary of Natural Population Analysis:

                                       Natural Population
                Natural  -----------------------------------------------
    Atom  No    Charge         Core      Valence    Rydberg      Total
 -----------------------------------------------------------------------
      C    1   -0.31302      1.99944     4.29953    0.01406     6.31302
      O    2   -0.51512      1.99975     6.50359    0.01178     8.51512
      C    3    0.25701      1.99881     3.71907    0.02510     5.74299
      C    4   -0.24713      1.99903     4.23430    0.01380     6.24713
      C    5   -0.33258      1.99915     4.31174    0.02169     6.33258
      C    6   -0.30536      1.99908     4.28888    0.01740     6.30536
      C    7    0.13689      1.99904     3.84326    0.02081     5.86311
      C    8   -0.38531      1.99903     4.36699    0.01930     6.38531
      N    9   -0.28256      1.99933     5.27249    0.01073     7.28256
      C   10   -0.48029      1.99945     4.46860    0.01224     6.48029
      C   11   -0.47947      1.99945     4.46789    0.01213     6.47947
      H   12    0.19569      0.00000     0.80120    0.00311     0.80431
      H   13    0.22118      0.00000     0.77823    0.00059     0.77882
      H   14    0.19591      0.00000     0.80097    0.00312     0.80409
      H   15    0.22797      0.00000     0.77110    0.00094     0.77203
      H   16    0.22176      0.00000     0.77744    0.00081     0.77824
      H   17    0.21670      0.00000     0.78225    0.00105     0.78330
      H   18    0.22684      0.00000     0.77157    0.00159     0.77316
      H   19    0.24945      0.00000     0.74885    0.00170     0.75055
      H   20    0.24050      0.00000     0.75720    0.00230     0.75950
      H   21    0.23335      0.00000     0.76596    0.00070     0.76665
      H   22    0.24567      0.00000     0.75210    0.00223     0.75433
      H   23    0.23352      0.00000     0.76574    0.00074     0.76648
      H   24    0.23838      0.00000     0.75868    0.00294     0.76162
 =======================================================================
   * Total *   -0.00000     21.99157    59.80761    0.20083    82.00000

 Normal termination of Gaussian 09 at Wed Sep 29 00:38:51 2021.
