 Gaussian 09, Revision A.02,

 -----------------------------------
 #p opt b3lyp/6-31G* scf=(xqc,tight)
 -----------------------------------

 ---------------------------------
 C1CC[C@@H]2[C@@H](C1)CNCC2_conf_0
 ---------------------------------
 Symbolic Z-matrix:
 Charge =  0 Multiplicity = 1

 SCF Done:  E(RB3LYP) =  -407.955475604     A.U. after   13 cycles
 SCF Done:  E(RB3LYP) =  -407.957419088     A.U. after   10 cycles
 SCF Done:  E(RB3LYP) =  -407.957573962     A.U. after    9 cycles
 SCF Done:  E(RB3LYP) =  -407.957599274     A.U. after    9 cycles
 SCF Done:  E(RB3LYP) =  -407.957600363     A.U. after    7 cycles
 SCF Done:  E(RB3LYP) =  -407.957600536     A.U. after    6 cycles
 Optimization completed.
    -- Stationary point found.
 Normal termination of Gaussian 09 at Mon Oct  4 10:56:48 2021.

 ----------------------------------------------------------------------
 #p freq b3lyp/6-31G* volume NMR pop=NPA density=current Geom=AllCheck
 Guess=Read
 ----------------------------------------------------------------------

 C1CC[C@@H]2[C@@H](C1)CNCC2_conf_0
 ---------------------------------
 Redundant internal coordinates taken from checkpoint file:
 C9H17N_35f9_conf_0.chk
 Charge =  0 Multiplicity = 1

 SCF Done:  E(RB3LYP) =  -407.957600536     A.U. after    1 cycles

  1  C    Isotropic =   162.1502   Anisotropy =     3.7862

  2  C    Isotropic =   161.8398   Anisotropy =     3.9771

  3  C    Isotropic =   155.8236   Anisotropy =    16.4759

  4  C    Isotropic =   148.1092   Anisotropy =    18.3754

  5  C    Isotropic =   147.8982   Anisotropy =    19.5131

  6  C    Isotropic =   158.1856   Anisotropy =    13.0003

  7  C    Isotropic =   136.2930   Anisotropy =    33.1624

  8  N    Isotropic =   208.4553   Anisotropy =    49.8130

  9  C    Isotropic =   141.8608   Anisotropy =    29.1319

 10  C    Isotropic =   155.7437   Anisotropy =    13.5180

 11  H    Isotropic =    30.5585   Anisotropy =     9.6970

 12  H    Isotropic =    30.7121   Anisotropy =     7.9343

 13  H    Isotropic =    30.5489   Anisotropy =     9.6805

 14  H    Isotropic =    30.7496   Anisotropy =     7.8133

 15  H    Isotropic =    30.9690   Anisotropy =     6.3268

 16  H    Isotropic =    30.6554   Anisotropy =     7.7115

 17  H    Isotropic =    31.0308   Anisotropy =     3.5207

 18  H    Isotropic =    30.7132   Anisotropy =     4.2482

 19  H    Isotropic =    30.7316   Anisotropy =     8.1702

 20  H    Isotropic =    31.0773   Anisotropy =     6.4163

 21  H    Isotropic =    29.8149   Anisotropy =     5.8622

 22  H    Isotropic =    29.4662   Anisotropy =     6.3227

 23  H    Isotropic =    31.7429   Anisotropy =    15.4145

 24  H    Isotropic =    29.4666   Anisotropy =     7.7849

 25  H    Isotropic =    29.3737   Anisotropy =     8.5811

 26  H    Isotropic =    30.8790   Anisotropy =     7.7791

 27  H    Isotropic =    30.7875   Anisotropy =     6.8017

  Exact polarizability: 109.773  -1.158  98.628  -0.311   0.321  82.453
 Approx polarizability: 133.216  -0.969 134.221   1.073   1.150 134.736

                     1                      2                      3
                     A                      A                      A
 Frequencies --   130.2577               144.3413               236.0674
 Red. masses --     2.5130                 2.5869                 1.9269
 Frc consts  --     0.0251                 0.0318                 0.0633
 IR Inten    --     0.3382                 0.3468                 0.4674

                     4                      5                      6
                     A                      A                      A
 Frequencies --   296.9188               306.4582               350.3356
 Red. masses --     3.1686                 1.8759                 1.8620
 Frc consts  --     0.1646                 0.1038                 0.1346
 IR Inten    --     0.1362                 1.2665                 0.2803

                     7                      8                      9
                     A                      A                      A
 Frequencies --   365.1829               402.2726               414.4052
 Red. masses --     1.7973                 4.2001                 3.7115
 Frc consts  --     0.1412                 0.4005                 0.3755
 IR Inten    --     1.1829                 2.1850                 1.0898

                    10                     11                     12
                     A                      A                      A
 Frequencies --   470.4477               495.2069               535.2382
 Red. masses --     3.2365                 2.3315                 1.9149
 Frc consts  --     0.4220                 0.3369                 0.3232
 IR Inten    --     2.8987                 0.6781                10.3701

                    13                     14                     15
                     A                      A                      A
 Frequencies --   581.0525               765.5687               807.0042
 Red. masses --     1.6543                 2.1944                 1.6823
 Frc consts  --     0.3291                 0.7578                 0.6455
 IR Inten    --    23.0604                 0.1587                72.1524

                    16                     17                     18
                     A                      A                      A
 Frequencies --   843.5167               855.1739               859.3436
 Red. masses --     1.6559                 1.9133                 2.0060
 Frc consts  --     0.6942                 0.8244                 0.8728
 IR Inten    --    12.6711                 1.7970                 3.1725

                    19                     20                     21
                     A                      A                      A
 Frequencies --   901.3780               917.1974               927.3383
 Red. masses --     2.1232                 1.5367                 2.5887
 Frc consts  --     1.0164                 0.7617                 1.3116
 IR Inten    --     0.2158                 0.8256                 1.1576

                    22                     23                     24
                     A                      A                      A
 Frequencies --   977.8824               993.5363              1016.3777
 Red. masses --     1.5146                 1.7671                 1.7149
 Frc consts  --     0.8533                 1.0278                 1.0438
 IR Inten    --     2.1598                 4.7096                 0.7790

                    25                     26                     27
                     A                      A                      A
 Frequencies --  1036.6222              1054.3033              1078.8753
 Red. masses --     1.8595                 2.0277                 1.2457
 Frc consts  --     1.1773                 1.3279                 0.8543
 IR Inten    --     0.7791                 2.1052                 1.0908

                    28                     29                     30
                     A                      A                      A
 Frequencies --  1091.2012              1105.5348              1126.2085
 Red. masses --     1.7020                 2.8077                 2.2087
 Frc consts  --     1.1941                 2.0218                 1.6505
 IR Inten    --     0.6952                 0.8930                 1.9553

                    31                     32                     33
                     A                      A                      A
 Frequencies --  1165.8280              1170.3656              1192.1160
 Red. masses --     1.9575                 3.2579                 2.3075
 Frc consts  --     1.5675                 2.6293                 1.9321
 IR Inten    --     6.8556                17.6345                 1.9244

                    34                     35                     36
                     A                      A                      A
 Frequencies --  1206.6145              1210.7959              1264.4808
 Red. masses --     1.2218                 1.2471                 1.3603
 Frc consts  --     1.0481                 1.0772                 1.2815
 IR Inten    --     2.7869                 0.6106                 4.2117

                    37                     38                     39
                     A                      A                      A
 Frequencies --  1283.6022              1297.2137              1316.3881
 Red. masses --     1.3119                 1.2143                 1.2705
 Frc consts  --     1.2735                 1.2039                 1.2972
 IR Inten    --     1.3791                 3.7467                 4.8387

                    40                     41                     42
                     A                      A                      A
 Frequencies --  1324.4445              1343.1032              1354.2617
 Red. masses --     1.2720                 1.1963                 1.3154
 Frc consts  --     1.3146                 1.2715                 1.4214
 IR Inten    --     2.2548                 4.2306                 2.6713

                    43                     44                     45
                     A                      A                      A
 Frequencies --  1370.1042              1384.3033              1391.3486
 Red. masses --     1.2866                 1.3638                 1.3643
 Frc consts  --     1.4230                 1.5398                 1.5560
 IR Inten    --    20.8688                 0.6112                 0.2414

                    46                     47                     48
                     A                      A                      A
 Frequencies --  1396.3621              1404.0653              1413.5302
 Red. masses --     1.4117                 1.5190                 1.5237
 Frc consts  --     1.6217                 1.7644                 1.7937
 IR Inten    --     1.0925                 3.8472                 1.2818

                    49                     50                     51
                     A                      A                      A
 Frequencies --  1415.6859              1447.5246              1499.3527
 Red. masses --     1.6204                 1.5201                 1.2655
 Frc consts  --     1.9134                 1.8767                 1.6762
 IR Inten    --     0.3920                 7.9850                 1.4162

                    52                     53                     54
                     A                      A                      A
 Frequencies --  1507.9268              1514.6121              1515.6474
 Red. masses --     1.0966                 1.0982                 1.0930
 Frc consts  --     1.4691                 1.4844                 1.4794
 IR Inten    --     1.5950                 0.7417                 1.4527

                    55                     56                     57
                     A                      A                      A
 Frequencies --  1519.9413              1525.9859              1532.6141
 Red. masses --     1.0865                 1.1161                 1.1000
 Frc consts  --     1.4789                 1.5312                 1.5224
 IR Inten    --     7.6209                 2.2359                 0.9614

                    58                     59                     60
                     A                      A                      A
 Frequencies --  1537.1947              2903.9406              2912.9901
 Red. masses --     1.1033                 1.0735                 1.0730
 Frc consts  --     1.5361                 5.3338                 5.3642
 IR Inten    --     1.9846                38.3441               114.9134

                    61                     62                     63
                     A                      A                      A
 Frequencies --  2972.6497              3007.7719              3017.2061
 Red. masses --     1.0805                 1.0770                 1.0639
 Frc consts  --     5.6253                 5.7404                 5.7065
 IR Inten    --    19.2418                 5.7479                 1.1035

                    64                     65                     66
                     A                      A                      A
 Frequencies --  3018.9161              3020.4431              3024.8210
 Red. masses --     1.0687                 1.0685                 1.0619
 Frc consts  --     5.7388                 5.7434                 5.7242
 IR Inten    --    53.0920                19.2731                38.1180

                    67                     68                     69
                     A                      A                      A
 Frequencies --  3036.1061              3057.0021              3059.0615
 Red. masses --     1.0603                 1.0961                 1.0992
 Frc consts  --     5.7583                 6.0350                 6.0603
 IR Inten    --    45.5937                21.5786                35.0422

                    70                     71                     72
                     A                      A                      A
 Frequencies --  3066.4633              3068.4460              3073.8922
 Red. masses --     1.0903                 1.0939                 1.0997
 Frc consts  --     6.0407                 6.0682                 6.1224
 IR Inten    --    80.9416                73.6015                59.2813

                    73                     74                     75
                     A                      A                      A
 Frequencies --  3074.6227              3078.9049              3495.2842
 Red. masses --     1.0937                 1.1027                 1.0746
 Frc consts  --     6.0919                 6.1591                 7.7347
 IR Inten    --    48.9341                92.0487                 3.2110

 - Thermochemistry -
 -------------------
 Temperature   298.150 Kelvin.  Pressure   1.00000 Atm.
 Atom     1 has atomic number  6 and mass  12.00000

 Molecular mass:   139.13610 amu.
 Principal axes and moments of inertia in atomic units:
                           1         2         3
     Eigenvalues --   731.910611779.661952348.56037
           X            0.99997  -0.00579  -0.00552
           Y            0.00576   0.99996  -0.00656
           Z            0.00556   0.00653   0.99996
 This molecule is an asymmetric top.
 Rotational symmetry number  1.
 Warning -- assumption of classical behavior for rotation
           may cause significant error
 Rotational temperatures (Kelvin)      0.11834     0.04867     0.03688
 Rotational constants (GHZ):           2.46579     1.01409     0.76845
 Zero-point vibrational energy     666793.6 (Joules/Mol)
                                  159.36749 (Kcal/Mol)
 Warning -- explicit consideration of  13 degrees of freedom as
           vibrations may cause significant error
 Vibrational temperatures:    187.41   207.67   339.65   427.20   440.92
          (Kelvin)            504.05   525.42   578.78   596.24   676.87
                              712.49   770.09   836.00  1101.48  1161.10
                             1213.63  1230.40  1236.40  1296.88  1319.64
                             1334.23  1406.95  1429.48  1462.34  1491.47
                             1516.91  1552.26  1569.99  1590.62  1620.36
                             1677.36  1683.89  1715.19  1736.05  1742.06
                             1819.30  1846.81  1866.40  1893.99  1905.58
                             1932.42  1948.48  1971.27  1991.70  2001.84
                             2009.05  2020.13  2033.75  2036.85  2082.66
                             2157.23  2169.57  2179.19  2180.68  2186.85
                             2195.55  2205.09  2211.68  4178.12  4191.14
                             4276.97  4327.51  4341.08  4343.54  4345.74
                             4352.04  4368.27  4398.34  4401.30  4411.95
                             4414.80  4422.64  4423.69  4429.85  5028.93

 Zero-point correction=                           0.253968 (Hartree/Particle)
 Thermal correction to Energy=                    0.262672
 Thermal correction to Enthalpy=                  0.263616
 Thermal correction to Gibbs Free Energy=         0.220950
 Sum of electronic and zero-point Energies=           -407.703632
 Sum of electronic and thermal Energies=              -407.694928
 Sum of electronic and thermal Enthalpies=            -407.693984
 Sum of electronic and thermal Free Energies=         -407.736650

                     E (Thermal)             CV                S
                      KCal/Mol        Cal/Mol-Kelvin    Cal/Mol-Kelvin
 Total                  164.829             36.647             89.798
 Electronic               0.000              0.000              0.000
 Translational            0.889              2.981             40.703
 Rotational               0.889              2.981             29.505
 Vibrational            163.052             30.685             19.591
 Vibration     1          0.612              1.923              2.942
 Vibration     2          0.616              1.909              2.746
 Vibration     3          0.655              1.786              1.832
 Vibration     4          0.691              1.679              1.434
 Vibration     5          0.697              1.661              1.381
 Vibration     6          0.727              1.575              1.165
 Vibration     7          0.738              1.544              1.100
 Vibration     8          0.768              1.465              0.954
 Vibration     9          0.778              1.439              0.911
 Vibration    10          0.827              1.316              0.736
 Vibration    11          0.851              1.261              0.670
 Vibration    12          0.890              1.172              0.576
 Vibration    13          0.938              1.072              0.483

 Optimization completed.
    -- Stationary point found.
 Normal termination of Gaussian 09 at Mon Oct  4 11:52:46 2021.
 Gaussian 09:  AM64L-G09RevA.02 11-Jun-2009

 ----------------------------------------------------------------------
 #p TD(NStates=10, Root=1) b3lyp/6-31G* volume pop=NPA density=current
 Geom=AllCheck Guess=Read
 ----------------------------------------------------------------------

 C1CC[C@@H]2[C@@H](C1)CNCC2_conf_0
 ---------------------------------
 Redundant internal coordinates taken from checkpoint file:
 C9H17N_35f9_conf_0.chk
 Charge =  0 Multiplicity = 1

                         Standard orientation:
 ---------------------------------------------------------------------
 Center     Atomic      Atomic             Coordinates (Angstroms)
 Number     Number       Type             X           Y           Z
 ---------------------------------------------------------------------
      1          6           0        2.534325   -0.731709   -0.242876
      2          6           0        2.539325    0.722272    0.255127
      3          6           0        1.271262    1.472725   -0.180874
      4          6           0       -0.004815    0.734589    0.253143
      5          6           0       -0.007062   -0.719467   -0.271338
      6          6           0        1.255029   -1.469848    0.181366
      7          6           0       -1.299706   -1.430983    0.147877
      8          7           0       -2.462301   -0.685396   -0.338119
      9          6           0       -2.534147    0.658234    0.238879
     10          6           0       -1.293058    1.458370   -0.170319
     11          1           0        3.419834   -1.263352    0.128567
     12          1           0        2.604835   -0.737300   -1.340625
     13          1           0        3.433769    1.244563   -0.108143
     14          1           0        2.600537    0.726957    1.353625
     15          1           0        1.268315    1.580052   -1.276353
     16          1           0        1.272419    2.491489    0.230485
     17          1           0       -0.001206    0.680248    1.356149
     18          1           0       -0.008651   -0.675736   -1.371806
     19          1           0        1.252997   -2.489233   -0.228589
     20          1           0        1.241931   -1.575246    1.277109
     21          1           0       -1.298970   -1.549220    1.251784
     22          1           0       -1.329661   -2.439399   -0.283692
     23          1           0       -3.313791   -1.198592   -0.120132
     24          1           0       -2.599366    0.642116    1.346360
     25          1           0       -3.442969    1.147109   -0.131704
     26          1           0       -1.330878    2.459911    0.278892
     27          1           0       -1.299947    1.588303   -1.261001
 ---------------------------------------------------------------------

 SCF Done:  E(RB3LYP) =  -407.957600536     A.U. after    1 cycles

 Excitation energies and oscillator strengths:

 Excited State   1:      Singlet-A      7.0063 eV  176.96 nm  f=0.0141  <S**2>=0.000
      39 -> 40         0.64705
      39 -> 41         0.17705
      39 -> 42        -0.19588
 This state for optimization and/or second-order correction.
 Total Energy, E(TD-HF/TD-KS) =  -407.700122412
 Copying the excited state density for this state as the 1-particle RhoCI density.

 Excited State   2:      Singlet-A      7.7024 eV  160.97 nm  f=0.0151  <S**2>=0.000
      39 -> 40        -0.10783
      39 -> 41         0.63595
      39 -> 42         0.25192
      39 -> 44        -0.12372

 Excited State   3:      Singlet-A      7.8122 eV  158.71 nm  f=0.0175  <S**2>=0.000
      39 -> 40         0.25050
      39 -> 41        -0.19000
      39 -> 42         0.62284

 Excited State   4:      Singlet-A      8.1572 eV  151.99 nm  f=0.0143  <S**2>=0.000
      39 -> 43         0.69509

 Excited State   5:      Singlet-A      8.3901 eV  147.77 nm  f=0.0047  <S**2>=0.000
      39 -> 41         0.15870
      39 -> 44         0.66428

 Excited State   6:      Singlet-A      9.0004 eV  137.75 nm  f=0.0051  <S**2>=0.000
      39 -> 44        -0.11947
      39 -> 45         0.54947
      39 -> 46        -0.35099
      39 -> 47        -0.19358

 Excited State   7:      Singlet-A      9.0981 eV  136.27 nm  f=0.0506  <S**2>=0.000
      38 -> 40        -0.21276
      39 -> 45         0.33542
      39 -> 46         0.55151

 Excited State   8:      Singlet-A      9.1239 eV  135.89 nm  f=0.0091  <S**2>=0.000
      37 -> 40         0.15056
      38 -> 40         0.63843
      38 -> 42         0.10307
      39 -> 45         0.13393
      39 -> 46         0.17570

 Excited State   9:      Singlet-A      9.1809 eV  135.05 nm  f=0.0045  <S**2>=0.000
      37 -> 40         0.66455
      37 -> 42         0.14247
      38 -> 40        -0.16355

 Excited State  10:      Singlet-A      9.3402 eV  132.74 nm  f=0.0027  <S**2>=0.000
      37 -> 41        -0.15924
      37 -> 42        -0.10551
      38 -> 41         0.57709
      38 -> 42         0.23467
      39 -> 47         0.20869
      39 -> 48        -0.13924

 The electronic state is 1-A.
 Alpha  occ. eigenvalues --  -14.30918 -10.19907 -10.19728 -10.17714 -10.17478
 Alpha  occ. eigenvalues --  -10.17432 -10.17398 -10.17337 -10.17231 -10.17125
 Alpha  occ. eigenvalues --   -0.89989  -0.82371  -0.76322  -0.74650  -0.71314
 Alpha  occ. eigenvalues --   -0.63668  -0.61086  -0.58866  -0.55270  -0.54689
 Alpha  occ. eigenvalues --   -0.49165  -0.45677  -0.44662  -0.44552  -0.42515
 Alpha  occ. eigenvalues --   -0.41919  -0.40724  -0.38500  -0.37526  -0.36021
 Alpha  occ. eigenvalues --   -0.34870  -0.34831  -0.33391  -0.32446  -0.32189
 Alpha  occ. eigenvalues --   -0.30833  -0.28182  -0.28084  -0.21390
 Alpha virt. eigenvalues --    0.08718   0.09697   0.10296   0.11661   0.12947
 Alpha virt. eigenvalues --    0.14823   0.15210   0.16372   0.16800   0.17270
 Alpha virt. eigenvalues --    0.17919   0.18408   0.18657   0.19138   0.19752

 Mulliken atomic charges:
              1
     1  C   -0.259287
     2  C   -0.259547
     3  C   -0.264025
     4  C   -0.067314
     5  C   -0.083306
     6  C   -0.265330
     7  C   -0.131054
     8  N   -0.140787
     9  C   -0.119061
    10  C   -0.260032
    11  H    0.131346
    12  H    0.130161
    13  H    0.131055
    14  H    0.128771
    15  H    0.125033
    16  H    0.130392
    17  H    0.096897
    18  H    0.126365
    19  H    0.131533
    20  H    0.125531
    21  H    0.146254
    22  H    0.071495
    23  H   -0.089185
    24  H    0.142814
    25  H    0.066168
    26  H    0.115585
    27  H    0.139528
 Sum of Mulliken atomic charges =   0.00000

 Dipole moment (field-independent basis, Debye):
    X=              2.1121    Y=              0.9186    Z=              0.1316  Tot=              2.3069
 Quadrupole moment (field-independent basis, Debye-Ang):
   XX=            -76.0313   YY=            -67.7892   ZZ=            -64.2234
   XY=             -4.4850   XZ=             -0.5336   YZ=             -0.1143

 Summary of Natural Population Analysis:

                                       Natural Population
                Natural  -----------------------------------------------
    Atom  No    Charge         Core      Valence    Rydberg      Total
 -----------------------------------------------------------------------
      C    1   -0.45422      1.99933     4.44319    0.01170     6.45422
      C    2   -0.45513      1.99933     4.44417    0.01163     6.45513
      C    3   -0.45664      1.99929     4.44417    0.01317     6.45664
      C    4   -0.26074      1.99918     4.24539    0.01616     6.26074
      C    5   -0.26543      1.99917     4.25159    0.01467     6.26543
      C    6   -0.45979      1.99929     4.44756    0.01294     6.45979
      C    7   -0.32400      1.99923     4.30303    0.02174     6.32400
      N    8   -0.20268      1.99931     5.18430    0.01907     7.20268
      C    9   -0.32515      1.99929     4.30620    0.01966     6.32515
      C   10   -0.46076      1.99928     4.44851    0.01297     6.46076
      H   11    0.23852      0.00000     0.75957    0.00191     0.76148
      H   12    0.22569      0.00000     0.77255    0.00175     0.77431
      H   13    0.23848      0.00000     0.75990    0.00161     0.76152
      H   14    0.22478      0.00000     0.77304    0.00217     0.77522
      H   15    0.22423      0.00000     0.77391    0.00187     0.77577
      H   16    0.23838      0.00000     0.75948    0.00213     0.76162
      H   17    0.22228      0.00000     0.76842    0.00930     0.77772
      H   18    0.23909      0.00000     0.75802    0.00289     0.76091
      H   19    0.23723      0.00000     0.75961    0.00316     0.76277
      H   20    0.22269      0.00000     0.77436    0.00295     0.77731
      H   21    0.24334      0.00000     0.73526    0.02140     0.75666
      H   22    0.17871      0.00000     0.78682    0.03447     0.82129
      H   23    0.06535      0.00000     0.80975    0.12490     0.93465
      H   24    0.23900      0.00000     0.73640    0.02460     0.76100
      H   25    0.17400      0.00000     0.78873    0.03727     0.82600
      H   26    0.21909      0.00000     0.77097    0.00994     0.78091
      H   27    0.23369      0.00000     0.76387    0.00245     0.76631
 =======================================================================
   * Total *   -0.00000     19.99271    57.56880    0.43849    78.00000

 Normal termination of Gaussian 09 at Mon Oct  4 15:45:34 2021.
