 Gaussian 09, Revision A.02,

 -----------------------------------
 #p opt b3lyp/6-31G* scf=(xqc,tight)
 -----------------------------------

 -------------------------
 COc1cc(OC)cc(c1)OC_conf_0
 -------------------------
 Symbolic Z-matrix:
 Charge =  0 Multiplicity = 1

 SCF Done:  E(RB3LYP) =  -575.813308209     A.U. after   14 cycles
 SCF Done:  E(RB3LYP) =  -575.816729265     A.U. after   15 cycles
 SCF Done:  E(RB3LYP) =  -575.817428767     A.U. after   14 cycles
 SCF Done:  E(RB3LYP) =  -575.817642693     A.U. after   14 cycles
 SCF Done:  E(RB3LYP) =  -575.817747099     A.U. after   15 cycles
 SCF Done:  E(RB3LYP) =  -575.817795745     A.U. after   15 cycles
 SCF Done:  E(RB3LYP) =  -575.817775930     A.U. after   16 cycles
 SCF Done:  E(RB3LYP) =  -575.817775472     A.U. after   14 cycles
 SCF Done:  E(RB3LYP) =  -575.817790848     A.U. after   12 cycles
 SCF Done:  E(RB3LYP) =  -575.817820358     A.U. after   12 cycles
 Optimization completed.
    -- Stationary point found.
 Normal termination of Gaussian 09 at Thu Sep 30 15:11:19 2021.

 ----------------------------------------------------------------------
 #p freq b3lyp/6-31G* volume NMR pop=NPA density=current Geom=AllCheck
 Guess=Read
 ----------------------------------------------------------------------

 COc1cc(OC)cc(c1)OC_conf_0
 -------------------------
 Redundant internal coordinates taken from checkpoint file:
 C9H12O3_9926_conf_0.chk
 Charge =  0 Multiplicity = 1

 SCF Done:  E(RB3LYP) =  -575.817820358     A.U. after    1 cycles

  1  C    Isotropic =   137.1779   Anisotropy =    66.3853

  2  O    Isotropic =   236.5633   Anisotropy =    79.2513

  3  C    Isotropic =    37.1761   Anisotropy =   122.7110

  4  C    Isotropic =   102.6740   Anisotropy =   103.3131

  5  C    Isotropic =    37.1822   Anisotropy =   122.8166

  6  O    Isotropic =   236.6755   Anisotropy =    79.2202

  7  C    Isotropic =   137.1971   Anisotropy =    66.3648

  8  C    Isotropic =   102.7072   Anisotropy =   103.3311

  9  C    Isotropic =    37.2100   Anisotropy =   122.8424

 10  C    Isotropic =   102.6590   Anisotropy =   103.3258

 11  O    Isotropic =   236.6890   Anisotropy =    79.0106

 12  C    Isotropic =   137.1453   Anisotropy =    66.3262

 13  H    Isotropic =    28.4117   Anisotropy =     8.2401

 14  H    Isotropic =    28.6880   Anisotropy =     8.0220

 15  H    Isotropic =    28.6871   Anisotropy =     8.0245

 16  H    Isotropic =    26.7462   Anisotropy =     7.7299

 17  H    Isotropic =    28.4139   Anisotropy =     8.2377

 18  H    Isotropic =    28.6883   Anisotropy =     8.0212

 19  H    Isotropic =    28.6874   Anisotropy =     8.0235

 20  H    Isotropic =    26.7432   Anisotropy =     7.7378

 21  H    Isotropic =    26.7440   Anisotropy =     7.7440

 22  H    Isotropic =    28.4159   Anisotropy =     8.2365

 23  H    Isotropic =    28.6906   Anisotropy =     8.0169

 24  H    Isotropic =    28.6902   Anisotropy =     8.0195

  Exact polarizability: 130.599   0.001 130.584  -0.001   0.001  56.389
 Approx polarizability: 190.366   0.000 190.350  -0.002   0.005  81.950

                     1                      2                      3
                     A                      A                      A
 Frequencies --    74.7102                92.5573                94.6633
 Red. masses --     3.0070                 3.2377                 3.2287
 Frc consts  --     0.0099                 0.0163                 0.0170
 IR Inten    --    10.5631                 0.0301                 0.0488

                     4                      5                      6
                     A                      A                      A
 Frequencies --   184.4182               185.5285               200.8525
 Red. masses --     3.3988                 3.4086                 1.9998
 Frc consts  --     0.0681                 0.0691                 0.0475
 IR Inten    --     2.2653                 2.2263                 2.4331

                     7                      8                      9
                     A                      A                      A
 Frequencies --   213.1888               217.2335               272.9596
 Red. masses --     1.5125                 1.5946                 1.6667
 Frc consts  --     0.0405                 0.0443                 0.0732
 IR Inten    --     0.0280                 0.0455                 1.9594

                    10                     11                     12
                     A                      A                      A
 Frequencies --   282.9511               285.4884               293.9472
 Red. masses --     1.9400                 1.7996                 3.0813
 Frc consts  --     0.0915                 0.0864                 0.1569
 IR Inten    --     0.0123                 0.0473                 0.0000

                    13                     14                     15
                     A                      A                      A
 Frequencies --   415.9157               416.2988               514.5877
 Red. masses --     4.6120                 4.6120                 5.7219
 Frc consts  --     0.4701                 0.4709                 0.8927
 IR Inten    --     6.9691                 6.9741                 0.0003

                    16                     17                     18
                     A                      A                      A
 Frequencies --   549.3602               549.8596               624.0818
 Red. masses --     5.2294                 5.2315                 3.8462
 Frc consts  --     0.9299                 0.9319                 0.8826
 IR Inten    --     7.1811                 7.2196                 0.0000

                    19                     20                     21
                     A                      A                      A
 Frequencies --   624.6745               674.9899               689.9188
 Red. masses --     3.8703                 3.8150                 2.2157
 Frc consts  --     0.8898                 1.0241                 0.6214
 IR Inten    --     0.0003                 0.0001                 1.6082

                    22                     23                     24
                     A                      A                      A
 Frequencies --   808.3867               809.3706               816.9904
 Red. masses --     1.5026                 1.5005                 1.6602
 Frc consts  --     0.5785                 0.5791                 0.6529
 IR Inten    --     0.1435                 0.5691                90.0016

                    25                     26                     27
                     A                      A                      A
 Frequencies --   961.2418               961.3838              1009.1429
 Red. masses --     5.5812                 5.5828                 6.3319
 Frc consts  --     3.0384                 3.0402                 3.7992
 IR Inten    --     9.5367                 9.6148                 0.0001

                    28                     29                     30
                     A                      A                      A
 Frequencies --  1089.0317              1105.0930              1105.9171
 Red. masses --     7.5683                 2.0669                 2.0777
 Frc consts  --     5.2884                 1.4872                 1.4972
 IR Inten    --     0.0082                53.3880                54.6175

                    31                     32                     33
                     A                      A                      A
 Frequencies --  1184.6599              1185.5159              1185.8645
 Red. masses --     1.2704                 1.2697                 1.2705
 Frc consts  --     1.0505                 1.0514                 1.0527
 IR Inten    --     0.3984                 0.0193                 1.8457

                    34                     35                     36
                     A                      A                      A
 Frequencies --  1197.8841              1198.3066              1220.8752
 Red. masses --     1.7667                 1.7698                 1.3764
 Frc consts  --     1.4936                 1.4973                 1.2087
 IR Inten    --   170.4680               171.4570                 0.1876

                    37                     38                     39
                     A                      A                      A
 Frequencies --  1246.6452              1247.4432              1293.8985
 Red. masses --     2.1049                 2.0970                 1.4137
 Frc consts  --     1.9274                 1.9226                 1.3944
 IR Inten    --   262.1434               261.1399                 0.0340

                    40                     41                     42
                     A                      A                      A
 Frequencies --  1349.8090              1419.5381              1485.0605
 Red. masses --     5.4070                 5.3421                 1.4131
 Frc consts  --     5.8043                 6.3424                 1.8362
 IR Inten    --     0.0003                 0.0001                71.5502

                    43                     44                     45
                     A                      A                      A
 Frequencies --  1485.4017              1513.5228              1518.6598
 Red. masses --     1.4272                 1.3207                 1.0483
 Frc consts  --     1.8554                 1.7826                 1.4245
 IR Inten    --    73.6818                 0.3353                 4.3017

                    46                     47                     48
                     A                      A                      A
 Frequencies --  1519.2547              1520.2033              1521.1606
 Red. masses --     1.0483                 1.0481                 1.8319
 Frc consts  --     1.4255                 1.4271                 2.4975
 IR Inten    --     5.2154                 5.6881                54.2893

                    49                     50                     51
                     A                      A                      A
 Frequencies --  1521.7810              1537.0511              1539.4004
 Red. masses --     1.8518                 1.0559                 1.2154
 Frc consts  --     2.5267                 1.4698                 1.6969
 IR Inten    --    52.2921                 0.8695                20.0593

                    52                     53                     54
                     A                      A                      A
 Frequencies --  1540.2153              1660.8687              1661.2619
 Red. masses --     1.2010                 6.2964                 6.2941
 Frc consts  --     1.6786                10.2333                10.2343
 IR Inten    --    19.5486               307.9080               307.7840

                    55                     56                     57
                     A                      A                      A
 Frequencies --  3027.2065              3027.3234              3027.5332
 Red. masses --     1.0342                 1.0342                 1.0344
 Frc consts  --     5.5841                 5.5846                 5.5860
 IR Inten    --    73.4438                61.6438                21.8051

                    58                     59                     60
                     A                      A                      A
 Frequencies --  3086.2095              3086.3132              3086.5540
 Red. masses --     1.1067                 1.1067                 1.1067
 Frc consts  --     6.2104                 6.2108                 6.2118
 IR Inten    --     4.4518                 1.3175               122.9079

                    61                     62                     63
                     A                      A                      A
 Frequencies --  3154.8171              3154.9779              3155.1043
 Red. masses --     1.1003                 1.1002                 1.1001
 Frc consts  --     6.4523                 6.4526                 6.4520
 IR Inten    --    36.0962                37.1091                10.8848

                    64                     65                     66
                     A                      A                      A
 Frequencies --  3248.0249              3248.6638              3248.8375
 Red. masses --     1.0903                 1.0901                 1.0900
 Frc consts  --     6.7769                 6.7784                 6.7786
 IR Inten    --     0.0809                 3.3043                 3.2062

 - Thermochemistry -
 -------------------
 Temperature   298.150 Kelvin.  Pressure   1.00000 Atm.
 Atom     1 has atomic number  6 and mass  12.00000

 Molecular mass:   168.07864 amu.
 Principal axes and moments of inertia in atomic units:
                           1         2         3
     Eigenvalues --  2090.625772090.973634147.06662
           X            1.00000   0.00268   0.00000
           Y           -0.00268   1.00000  -0.00000
           Z           -0.00000   0.00000   1.00000
 This molecule is an asymmetric top.
 Rotational symmetry number  1.
 Warning -- assumption of classical behavior for rotation
           may cause significant error
 Rotational temperatures (Kelvin)      0.04143     0.04142     0.02089
 Rotational constants (GHZ):           0.86325     0.86311     0.43519
 Zero-point vibrational energy     522951.1 (Joules/Mol)
                                  124.98830 (Kcal/Mol)
 Warning -- explicit consideration of  17 degrees of freedom as
           vibrations may cause significant error
 Vibrational temperatures:    107.49   133.17   136.20   265.34   266.93
          (Kelvin)            288.98   306.73   312.55   392.73   407.10
                              410.75   422.92   598.41   598.96   740.38
                              790.41   791.12   897.91   898.77   971.16
                              992.64  1163.09  1164.50  1175.47  1383.01
                             1383.22  1451.93  1566.87  1589.98  1591.17
                             1704.46  1705.69  1706.19  1723.49  1724.09
                             1756.56  1793.64  1794.79  1861.63  1942.07
                             2042.40  2136.67  2137.16  2177.62  2185.01
                             2185.87  2187.23  2188.61  2189.50  2211.47
                             2214.85  2216.02  2389.62  2390.18  4355.47
                             4355.64  4355.94  4440.36  4440.51  4440.86
                             4539.07  4539.30  4539.49  4673.18  4674.10
                             4674.35

 Zero-point correction=                           0.199182 (Hartree/Particle)
 Thermal correction to Energy=                    0.211208
 Thermal correction to Enthalpy=                  0.212153
 Thermal correction to Gibbs Free Energy=         0.161284
 Sum of electronic and zero-point Energies=           -575.618639
 Sum of electronic and thermal Energies=              -575.606612
 Sum of electronic and thermal Enthalpies=            -575.605668
 Sum of electronic and thermal Free Energies=         -575.656536

                     E (Thermal)             CV                S
                      KCal/Mol        Cal/Mol-Kelvin    Cal/Mol-Kelvin
 Total                  132.535             44.682            107.062
 Electronic               0.000              0.000              0.000
 Translational            0.889              2.981             41.266
 Rotational               0.889              2.981             31.273
 Vibrational            130.758             38.721             34.523
 Vibration     1          0.599              1.966              4.025
 Vibration     2          0.602              1.954              3.605
 Vibration     3          0.603              1.953              3.561
 Vibration     4          0.631              1.861              2.283
 Vibration     5          0.632              1.860              2.272
 Vibration     6          0.638              1.839              2.125
 Vibration     7          0.644              1.821              2.016
 Vibration     8          0.646              1.815              1.982
 Vibration     9          0.676              1.723              1.577
 Vibration    10          0.682              1.705              1.516
 Vibration    11          0.683              1.701              1.501
 Vibration    12          0.689              1.685              1.451
 Vibration    13          0.779              1.436              0.906
 Vibration    14          0.780              1.435              0.905
 Vibration    15          0.870              1.218              0.623
 Vibration    16          0.905              1.141              0.546
 Vibration    17          0.905              1.140              0.544

 Normal termination of Gaussian 09 at Thu Sep 30 15:46:37 2021.
 Gaussian 09:  AM64L-G09RevA.02 11-Jun-2009

 ----------------------------------------------------------------------
 #p TD(NStates=10, Root=1) b3lyp/6-31G* volume pop=NPA density=current
 Geom=AllCheck Guess=Read
 ----------------------------------------------------------------------

 COc1cc(OC)cc(c1)OC_conf_0
 -------------------------
 Redundant internal coordinates taken from checkpoint file:
 C9H12O3_9926_conf_0.chk
 Charge =  0 Multiplicity = 1

                         Standard orientation:
 ---------------------------------------------------------------------
 Center     Atomic      Atomic             Coordinates (Angstroms)
 Number     Number       Type             X           Y           Z
 ---------------------------------------------------------------------
      1          6           0        3.260910   -1.715274    0.000609
      2          8           0        1.875182   -2.017199   -0.000327
      3          6           0        0.989357   -0.977103   -0.000299
      4          6           0       -0.365233   -1.359089   -0.000386
      5          6           0       -1.340885   -0.368253   -0.000229
      6          8           0       -2.684556   -0.615208   -0.000226
      7          6           0       -3.116209   -1.966071    0.000536
      8          6           0       -0.994437    0.995904   -0.000118
      9          6           0        0.351500    1.345269   -0.000182
     10          6           0        1.359649    0.363131   -0.000284
     11          8           0        0.809493    2.632367   -0.000150
     12          6           0       -0.144739    3.681455    0.000409
     13          1           0        3.776856   -2.677456    0.001171
     14          1           0        3.549544   -1.147505    0.894962
     15          1           0        3.550874   -1.147716   -0.893442
     16          1           0       -0.599526   -2.415497   -0.000482
     17          1           0       -4.207455   -1.931661    0.001100
     18          1           0       -2.768838   -2.500108    0.894769
     19          1           0       -2.769792   -2.500836   -0.893633
     20          1           0       -1.792164    1.727006   -0.000220
     21          1           0        2.391689    0.688291   -0.000674
     22          1           0        0.430527    4.609398    0.000987
     23          1           0       -0.781090    3.647790    0.894561
     24          1           0       -0.781052    3.648794   -0.893808
 ---------------------------------------------------------------------

 SCF Done:  E(RB3LYP) =  -575.817820358     A.U. after    1 cycles

 Excitation energies and oscillator strengths:

 Excited State   1:      Singlet-A      5.1691 eV  239.86 nm  f=0.0000  <S**2>=0.000
      44 -> 46         0.49135
      45 -> 47         0.49139
 This state for optimization and/or second-order correction.
 Total Energy, E(TD-HF/TD-KS) =  -575.627858460
 Copying the excited state density for this state as the 1-particle RhoCI density.

 Excited State   2:      Singlet-A      5.8558 eV  211.73 nm  f=0.0000  <S**2>=0.000
      44 -> 47        -0.48982
      45 -> 46         0.49031

 Excited State   3:      Singlet-A      6.4862 eV  191.15 nm  f=0.5656  <S**2>=0.000
      44 -> 46         0.39858
      44 -> 47        -0.28215
      45 -> 46        -0.28188
      45 -> 47        -0.39851

 Excited State   4:      Singlet-A      6.4863 eV  191.15 nm  f=0.5658  <S**2>=0.000
      44 -> 46         0.28201
      44 -> 47         0.39875
      45 -> 46         0.39835
      45 -> 47        -0.28202

 Excited State   5:      Singlet-A      7.2348 eV  171.37 nm  f=0.1429  <S**2>=0.000
      43 -> 46         0.69623

 Excited State   6:      Singlet-A      7.2352 eV  171.36 nm  f=0.1429  <S**2>=0.000
      43 -> 47         0.69623

 Excited State   7:      Singlet-A      7.3091 eV  169.63 nm  f=0.0000  <S**2>=0.000
      45 -> 48         0.67925
      45 -> 51        -0.17371

 Excited State   8:      Singlet-A      7.3096 eV  169.62 nm  f=0.0000  <S**2>=0.000
      44 -> 48         0.67926
      44 -> 51        -0.17366

 Excited State   9:      Singlet-A      7.7666 eV  159.64 nm  f=0.0233  <S**2>=0.000
      44 -> 49        -0.16363
      44 -> 50        -0.45578
      45 -> 49         0.47266
      45 -> 50        -0.16627

 Excited State  10:      Singlet-A      7.7835 eV  159.29 nm  f=0.0000  <S**2>=0.000
      44 -> 49         0.18994
      44 -> 50         0.42492
      45 -> 49         0.40932
      45 -> 50        -0.18169
      45 -> 51         0.23803

 The electronic state is 1-A.
 Alpha  occ. eigenvalues --  -19.17183 -19.17182 -19.17182 -10.24269 -10.24268
 Alpha  occ. eigenvalues --  -10.24266 -10.23562 -10.23562 -10.23561 -10.16906
 Alpha  occ. eigenvalues --  -10.16905 -10.16904  -1.05924  -1.05673  -1.05670
 Alpha  occ. eigenvalues --   -0.83823  -0.75347  -0.75346  -0.70136  -0.68750
 Alpha  occ. eigenvalues --   -0.68749  -0.58476  -0.58475  -0.54004  -0.50398
 Alpha  occ. eigenvalues --   -0.48348  -0.48347  -0.48096  -0.46659  -0.46011
 Alpha  occ. eigenvalues --   -0.46010  -0.43223  -0.43221  -0.40192  -0.37992
 Alpha  occ. eigenvalues --   -0.37786  -0.37785  -0.33697  -0.33697  -0.32947
 Alpha  occ. eigenvalues --   -0.32945  -0.32734  -0.26531  -0.20645  -0.20643
 Alpha virt. eigenvalues --    0.02662   0.02663   0.09828   0.10970   0.10970
 Alpha virt. eigenvalues --    0.11668   0.13158   0.13160   0.15691   0.15866
 Alpha virt. eigenvalues --    0.15866   0.16869   0.17087   0.17406   0.17407

 Mulliken atomic charges:
              1
     1  C   -0.213077
     2  O   -0.493096
     3  C    0.343815
     4  C   -0.247877
     5  C    0.343878
     6  O   -0.493048
     7  C   -0.212987
     8  C   -0.247905
     9  C    0.343763
    10  C   -0.247873
    11  O   -0.492994
    12  C   -0.213034
    13  H    0.166552
    14  H    0.155085
    15  H    0.155082
    16  H    0.133486
    17  H    0.166530
    18  H    0.155053
    19  H    0.155050
    20  H    0.133487
    21  H    0.133475
    22  H    0.166522
    23  H    0.155057
    24  H    0.155055
 Sum of Mulliken atomic charges =  -0.00000

 Dipole moment (field-independent basis, Debye):
    X=             -0.0001    Y=             -0.0000    Z=              0.0023  Tot=              0.0023
 Quadrupole moment (field-independent basis, Debye-Ang):
   XX=            -60.4769   YY=            -60.4829   ZZ=            -72.8622
   XY=              0.0002   XZ=             -0.0000   YZ=             -0.0015

 Summary of Natural Population Analysis:

                                       Natural Population
                Natural  -----------------------------------------------
    Atom  No    Charge         Core      Valence    Rydberg      Total
 -----------------------------------------------------------------------
      C    1   -0.31767      1.99943     4.30414    0.01410     6.31767
      O    2   -0.48995      1.99975     6.47824    0.01196     8.48995
      C    3    0.27895      1.99885     3.69748    0.02472     5.72105
      C    4   -0.34613      1.99899     4.33027    0.01687     6.34613
      C    5    0.27901      1.99885     3.69743    0.02472     5.72099
      O    6   -0.48995      1.99975     6.47824    0.01196     8.48995
      C    7   -0.31762      1.99943     4.30409    0.01410     6.31762
      C    8   -0.34622      1.99899     4.33036    0.01687     6.34622
      C    9    0.27902      1.99885     3.69742    0.02472     5.72098
      C   10   -0.34616      1.99899     4.33029    0.01687     6.34616
      O   11   -0.48993      1.99975     6.47821    0.01196     8.48993
      C   12   -0.31767      1.99943     4.30413    0.01410     6.31767
      H   13    0.22586      0.00000     0.77359    0.00055     0.77414
      H   14    0.20472      0.00000     0.79291    0.00237     0.79528
      H   15    0.20472      0.00000     0.79292    0.00237     0.79528
      H   16    0.23949      0.00000     0.75920    0.00132     0.76051
      H   17    0.22585      0.00000     0.77360    0.00055     0.77415
      H   18    0.20471      0.00000     0.79292    0.00237     0.79529
      H   19    0.20470      0.00000     0.79293    0.00237     0.79530
      H   20    0.23951      0.00000     0.75917    0.00132     0.76049
      H   21    0.23948      0.00000     0.75920    0.00132     0.76052
      H   22    0.22585      0.00000     0.77360    0.00055     0.77415
      H   23    0.20471      0.00000     0.79292    0.00237     0.79529
      H   24    0.20471      0.00000     0.79292    0.00237     0.79529
 =======================================================================
   * Total *   -0.00000     23.99106    65.78621    0.22273    90.00000

 Normal termination of Gaussian 09 at Thu Sep 30 18:48:42 2021.
