 Gaussian 09, Revision A.02,

 -----------------------------------
 #p opt b3lyp/6-31G* scf=(xqc,tight)
 -----------------------------------

 ---------------------------------
 [Li]c1ccc(cc1)O[Si](C)(C)C_conf_0
 ---------------------------------
 Symbolic Z-matrix:
 Charge =  0 Multiplicity = 1

 SCF Done:  E(RB3LYP) =  -723.064629343     A.U. after   16 cycles
 SCF Done:  E(RB3LYP) =  -723.072293583     A.U. after   11 cycles
 SCF Done:  E(RB3LYP) =  -723.072913103     A.U. after   10 cycles
 SCF Done:  E(RB3LYP) =  -723.072961237     A.U. after    9 cycles
 SCF Done:  E(RB3LYP) =  -723.072977289     A.U. after    8 cycles
 SCF Done:  E(RB3LYP) =  -723.072982157     A.U. after    8 cycles
 SCF Done:  E(RB3LYP) =  -723.072982632     A.U. after    7 cycles
 SCF Done:  E(RB3LYP) =  -723.072982718     A.U. after    6 cycles
 SCF Done:  E(RB3LYP) =  -723.072982781     A.U. after    7 cycles
 SCF Done:  E(RB3LYP) =  -723.072982816     A.U. after    6 cycles
 SCF Done:  E(RB3LYP) =  -723.072982848     A.U. after    6 cycles
 SCF Done:  E(RB3LYP) =  -723.072982869     A.U. after    6 cycles
 Optimization completed.
    -- Stationary point found.
 Normal termination of Gaussian 09 at Sat Oct  2 21:16:02 2021.

 ----------------------------------------------------------------------
 #p freq b3lyp/6-31G* volume NMR pop=NPA density=current Geom=AllCheck
 Guess=Read
 ----------------------------------------------------------------------

 [Li]c1ccc(cc1)O[Si](C)(C)C_conf_0
 ---------------------------------
 Redundant internal coordinates taken from checkpoint file:
 C9H13LiOSi_4f26_conf_0.chk
 Charge =  0 Multiplicity = 1

 SCF Done:  E(RB3LYP) =  -723.072982869     A.U. after    1 cycles

  1  Li   Isotropic =    90.8337   Anisotropy =    15.7633

  2  C    Isotropic =    41.1643   Anisotropy =   230.8708

  3  C    Isotropic =    53.4069   Anisotropy =   150.6437

  4  C    Isotropic =    80.7958   Anisotropy =   121.1161

  5  C    Isotropic =    42.1337   Anisotropy =   121.5106

  6  C    Isotropic =    77.5748   Anisotropy =   127.4360

  7  C    Isotropic =    52.3800   Anisotropy =   153.2973

  8  O    Isotropic =   217.8138   Anisotropy =    64.2828

  9  Si   Isotropic =   398.8552   Anisotropy =    33.7104

 10  C    Isotropic =   188.2466   Anisotropy =    11.3339

 11  C    Isotropic =   188.8642   Anisotropy =     8.4449

 12  C    Isotropic =   188.8664   Anisotropy =     8.4452

 13  H    Isotropic =    24.7025   Anisotropy =     7.5687

 14  H    Isotropic =    25.9605   Anisotropy =     9.2307

 15  H    Isotropic =    25.9167   Anisotropy =     8.0364

 16  H    Isotropic =    24.6128   Anisotropy =     6.5912

 17  H    Isotropic =    31.9302   Anisotropy =     9.1040

 18  H    Isotropic =    31.9302   Anisotropy =     9.1042

 19  H    Isotropic =    32.4382   Anisotropy =     9.3126

 20  H    Isotropic =    32.0443   Anisotropy =     8.7508

 21  H    Isotropic =    32.4087   Anisotropy =     9.3241

 22  H    Isotropic =    31.6070   Anisotropy =     8.9070

 23  H    Isotropic =    32.0445   Anisotropy =     8.7514

 24  H    Isotropic =    31.6069   Anisotropy =     8.9069

 25  H    Isotropic =    32.4088   Anisotropy =     9.3242

  Exact polarizability: 200.950  -8.013 126.992   0.004  -0.001  91.442
 Approx polarizability: 247.249  -7.729 204.666   0.005  -0.001 122.402

 ******    1 imaginary frequencies (negative Signs) ******

                     1                      2                      3
                     A                      A                      A
 Frequencies --   -20.5692                47.7138                82.9057
 Red. masses --     3.7045                 3.0303                 4.2096
 Frc consts  --     0.0009                 0.0041                 0.0170
 IR Inten    --     2.8258                 6.9392                20.9521

                     4                      5                      6
                     A                      A                      A
 Frequencies --   100.1513               117.1742               117.4325
 Red. masses --     3.5444                 1.2383                 1.9296
 Frc consts  --     0.0209                 0.0100                 0.0157
 IR Inten    --    47.2189                 8.6545                36.2655

                     7                      8                      9
                     A                      A                      A
 Frequencies --   125.1390               142.7243               181.0995
 Red. masses --     1.6106                 1.0389                 2.6421
 Frc consts  --     0.0149                 0.0125                 0.0511
 IR Inten    --    21.5801                 0.4492                 1.1006

                    10                     11                     12
                     A                      A                      A
 Frequencies --   190.9089               203.6372               235.5740
 Red. masses --     2.6866                 2.5660                 3.7706
 Frc consts  --     0.0577                 0.0627                 0.1233
 IR Inten    --     2.9407                 4.4775                 6.4114

                    13                     14                     15
                     A                      A                      A
 Frequencies --   246.2648               297.3547               360.9280
 Red. masses --     2.9500                 5.2911                 4.6791
 Frc consts  --     0.1054                 0.2756                 0.3591
 IR Inten    --     2.4843                36.3310                 0.1236

                    16                     17                     18
                     A                      A                      A
 Frequencies --   399.5846               473.2924               526.0036
 Red. masses --     2.8783                 6.8724                 2.8409
 Frc consts  --     0.2708                 0.9070                 0.4631
 IR Inten    --     0.0084                36.4448                 8.6224

                    19                     20                     21
                     A                      A                      A
 Frequencies --   570.6942               616.2574               649.8173
 Red. masses --     5.4649                 4.2441                 7.0989
 Frc consts  --     1.0487                 0.9496                 1.7661
 IR Inten    --    21.6329                32.1703                 0.4196

                    22                     23                     24
                     A                      A                      A
 Frequencies --   687.2026               695.4747               700.6766
 Red. masses --     2.3356                 2.2868                 1.1744
 Frc consts  --     0.6498                 0.6517                 0.3397
 IR Inten    --     9.9305                 7.1909                 0.1282

                    25                     26                     27
                     A                      A                      A
 Frequencies --   718.2417               735.9127               779.1861
 Red. masses --     3.2943                 5.1493                 1.4936
 Frc consts  --     1.0013                 1.6431                 0.5343
 IR Inten    --     0.0053                 2.8422                14.7253

                    28                     29                     30
                     A                      A                      A
 Frequencies --   790.4444               810.5697               836.4979
 Red. masses --     1.4929                 1.5688                 1.3235
 Frc consts  --     0.5496                 0.6073                 0.5456
 IR Inten    --    25.0040                31.6375                 7.4925

                    31                     32                     33
                     A                      A                      A
 Frequencies --   884.4246               887.9837               888.1011
 Red. masses --     1.8374                 1.7339                 1.6167
 Frc consts  --     0.8468                 0.8055                 0.7513
 IR Inten    --    80.3670                82.2521               111.2740

                    34                     35                     36
                     A                      A                      A
 Frequencies --   937.0652               951.0966               958.0848
 Red. masses --     1.2953                 5.2865                 1.3417
 Frc consts  --     0.6701                 2.8175                 0.7256
 IR Inten    --     3.1120               448.9498                 0.5928

                    37                     38                     39
                     A                      A                      A
 Frequencies --  1022.8471              1067.5873              1113.7155
 Red. masses --     5.3699                 2.4843                 1.5458
 Frc consts  --     3.3100                 1.6683                 1.1297
 IR Inten    --     0.6903                36.5101                 0.7695

                    40                     41                     42
                     A                      A                      A
 Frequencies --  1214.4497              1278.5188              1292.0029
 Red. masses --     1.2116                 5.2549                 4.3494
 Frc consts  --     1.0528                 5.0609                 4.2777
 IR Inten    --    72.8753               161.7496               355.6023

                    43                     44                     45
                     A                      A                      A
 Frequencies --  1330.2554              1330.2603              1338.4783
 Red. masses --     1.2545                 1.2643                 1.2455
 Frc consts  --     1.3079                 1.3182                 1.3147
 IR Inten    --    40.3562                36.2729                54.3867

                    46                     47                     48
                     A                      A                      A
 Frequencies --  1345.3370              1419.0018              1484.2784
 Red. masses --     1.3060                 2.5502                 1.0541
 Frc consts  --     1.3927                 3.0255                 1.3682
 IR Inten    --     9.1438                 4.2345                 0.2100

                    49                     50                     51
                     A                      A                      A
 Frequencies --  1491.2807              1491.3986              1497.4952
 Red. masses --     1.0534                 1.0534                 1.0484
 Frc consts  --     1.3802                 1.3804                 1.3851
 IR Inten    --     0.0005                 0.5465                 1.4916

                    52                     53                     54
                     A                      A                      A
 Frequencies --  1498.0791              1508.7202              1526.9067
 Red. masses --     1.0501                 1.0518                 2.1499
 Frc consts  --     1.3886                 1.4106                 2.9532
 IR Inten    --     6.5707                 3.4111                53.5346

                    55                     56                     57
                     A                      A                      A
 Frequencies --  1594.8640              1626.3807              3042.7636
 Red. masses --     5.9159                 5.4918                 1.0367
 Frc consts  --     8.8659                 8.5587                 5.6552
 IR Inten    --    15.9628               198.4854                 5.2845

                    58                     59                     60
                     A                      A                      A
 Frequencies --  3043.8769              3046.7454              3101.3094
 Red. masses --     1.0364                 1.0357                 1.0868
 Frc consts  --     5.6576                 5.6645                 6.1585
 IR Inten    --     4.3471                 7.4688                39.9214

                    61                     62                     63
                     A                      A                      A
 Frequencies --  3103.7958              3111.9884              3112.9859
 Red. masses --     1.0869                 1.0994                 1.0997
 Frc consts  --     6.1692                 6.2731                 6.2788
 IR Inten    --    47.7652                 4.2082                16.5367

                    64                     65                     66
                     A                      A                      A
 Frequencies --  3118.1828              3125.8467              3126.6054
 Red. masses --     1.0998                 1.1008                 1.1004
 Frc consts  --     6.3006                 6.3371                 6.3377
 IR Inten    --    35.9259                 5.2403                12.5363

                    67                     68                     69
                     A                      A                      A
 Frequencies --  3127.1256              3182.1392              3185.7441
 Red. masses --     1.1000                 1.0905                 1.0917
 Frc consts  --     6.3376                 6.5062                 6.5281
 IR Inten    --    29.8883                49.7343                26.4218

 - Thermochemistry -
 -------------------
 Temperature   298.150 Kelvin.  Pressure   1.00000 Atm.
 Atom     1 has atomic number  3 and mass   7.01600

 Molecular mass:   172.08957 amu.
 Principal axes and moments of inertia in atomic units:
                           1         2         3
     Eigenvalues --   908.142184115.566324438.59091
           X            0.99996   0.00932  -0.00000
           Y           -0.00932   0.99996   0.00001
           Z            0.00000  -0.00001   1.00000
 This molecule is an asymmetric top.
 Rotational symmetry number  1.
 Warning -- assumption of classical behavior for rotation
           may cause significant error
 Rotational temperatures (Kelvin)      0.09537     0.02105     0.01951
 Rotational constants (GHZ):           1.98729     0.43852     0.40660
    1 imaginary frequencies ignored.
 Zero-point vibrational energy     513476.6 (Joules/Mol)
                                  122.72386 (Kcal/Mol)
 Warning -- explicit consideration of  19 degrees of freedom as
           vibrations may cause significant error
 Vibrational temperatures:     68.65   119.28   144.10   168.59   168.96
          (Kelvin)            180.05   205.35   260.56   274.67   292.99
                              338.94   354.32   427.83   519.29   574.91
                              680.96   756.80   821.10   886.66   934.94
                              988.73  1000.63  1008.12  1033.39  1058.81
                             1121.07  1137.27  1166.23  1203.53  1272.49
                             1277.61  1277.78  1348.23  1368.41  1378.47
                             1471.65  1536.02  1602.39  1747.32  1839.50
                             1858.90  1913.94  1913.95  1925.77  1935.64
                             2041.62  2135.54  2145.62  2145.79  2154.56
                             2155.40  2170.71  2196.88  2294.65  2340.00
                             4377.85  4379.45  4383.58  4462.09  4465.66
                             4477.45  4478.89  4486.36  4497.39  4498.48
                             4499.23  4578.38  4583.57

 Zero-point correction=                           0.195573 (Hartree/Particle)
 Thermal correction to Energy=                    0.209586
 Thermal correction to Enthalpy=                  0.210530
 Thermal correction to Gibbs Free Energy=         0.155055
 Sum of electronic and zero-point Energies=           -722.877410
 Sum of electronic and thermal Energies=              -722.863397
 Sum of electronic and thermal Enthalpies=            -722.862453
 Sum of electronic and thermal Free Energies=         -722.917928

                     E (Thermal)             CV                S
                      KCal/Mol        Cal/Mol-Kelvin    Cal/Mol-Kelvin
 Total                  131.517             51.101            116.758
 Electronic               0.000              0.000              0.000
 Translational            0.889              2.981             41.336
 Rotational               0.889              2.981             31.184
 Vibrational            129.740             45.139             44.238
 Vibration     1          0.595              1.978              4.910
 Vibration     2          0.600              1.961              3.821
 Vibration     3          0.604              1.949              3.451
 Vibration     4          0.608              1.935              3.146
 Vibration     5          0.608              1.935              3.142
 Vibration     6          0.610              1.928              3.019
 Vibration     7          0.616              1.910              2.767
 Vibration     8          0.630              1.865              2.317
 Vibration     9          0.634              1.852              2.219
 Vibration    10          0.639              1.835              2.100
 Vibration    11          0.655              1.786              1.836
 Vibration    12          0.661              1.769              1.757
 Vibration    13          0.691              1.679              1.432
 Vibration    14          0.735              1.553              1.118
 Vibration    15          0.766              1.471              0.964
 Vibration    16          0.830              1.309              0.728
 Vibration    17          0.881              1.192              0.596
 Vibration    18          0.927              1.095              0.503
 Vibration    19          0.976              0.998              0.423

 Optimization completed.
    -- Stationary point found.
 Normal termination of Gaussian 09 at Sat Oct  2 22:36:35 2021.
 Gaussian 09:  AM64L-G09RevA.02 11-Jun-2009

 ----------------------------------------------------------------------
 #p TD(NStates=10, Root=1) b3lyp/6-31G* volume pop=NPA density=current
 Geom=AllCheck Guess=Read
 ----------------------------------------------------------------------

 [Li]c1ccc(cc1)O[Si](C)(C)C_conf_0
 ---------------------------------
 Redundant internal coordinates taken from checkpoint file:
 C9H13LiOSi_4f26_conf_0.chk
 Charge =  0 Multiplicity = 1

                         Standard orientation:
 ---------------------------------------------------------------------
 Center     Atomic      Atomic             Coordinates (Angstroms)
 Number     Number       Type             X           Y           Z
 ---------------------------------------------------------------------
      1          3           0        5.484210   -0.680715    0.000109
      2          6           0        3.567927   -0.233442    0.000027
      3          6           0        2.544967   -1.208702   -0.000013
      4          6           0        1.177926   -0.906672   -0.000077
      5          6           0        0.765456    0.429607   -0.000100
      6          6           0        1.734517    1.437543   -0.000056
      7          6           0        3.089208    1.099640    0.000005
      8          8           0       -0.550785    0.822682   -0.000154
      9         14           0       -2.000580   -0.030741    0.000016
     10          6           0       -3.309595    1.320709   -0.000049
     11          6           0       -2.162300   -1.092898   -1.553337
     12          6           0       -2.162100   -1.092576    1.553608
     13          1           0        2.805483   -2.270092    0.000004
     14          1           0        0.442567   -1.707633   -0.000113
     15          1           0        1.405064    2.473938   -0.000071
     16          1           0        3.798269    1.931168    0.000036
     17          1           0       -3.213696    1.960206   -0.884844
     18          1           0       -3.213585    1.960392    0.884599
     19          1           0       -4.321360    0.896709    0.000059
     20          1           0       -2.073251   -0.477692   -2.456430
     21          1           0       -3.141592   -1.587574   -1.583084
     22          1           0       -1.394024   -1.871756   -1.607887
     23          1           0       -2.073093   -0.477160    2.456562
     24          1           0       -1.393715   -1.871317    1.608292
     25          1           0       -3.141325   -1.587377    1.583508
 ---------------------------------------------------------------------

 SCF Done:  E(RB3LYP) =  -723.072982869     A.U. after    1 cycles

 Excitation energies and oscillator strengths:

 Excited State   1:      Singlet-A      2.8214 eV  439.43 nm  f=0.0098  <S**2>=0.000
      46 -> 47         0.70500
 This state for optimization and/or second-order correction.
 Total Energy, E(TD-HF/TD-KS) =  -722.969296572
 Copying the excited state density for this state as the 1-particle RhoCI density.

 Excited State   2:      Singlet-A      3.0487 eV  406.68 nm  f=0.1099  <S**2>=0.000
      45 -> 47         0.70427

 Excited State   3:      Singlet-A      3.6794 eV  336.97 nm  f=0.0000  <S**2>=0.000
      44 -> 47         0.70619

 Excited State   4:      Singlet-A      4.2950 eV  288.67 nm  f=0.0000  <S**2>=0.000
      46 -> 49         0.70501

 Excited State   5:      Singlet-A      4.3084 eV  287.77 nm  f=0.0315  <S**2>=0.000
      45 -> 49         0.70026

 Excited State   6:      Singlet-A      4.3389 eV  285.75 nm  f=0.0732  <S**2>=0.000
      45 -> 48         0.70519

 Excited State   7:      Singlet-A      4.4019 eV  281.66 nm  f=0.2511  <S**2>=0.000
      46 -> 48         0.70242

 Excited State   8:      Singlet-A      4.9190 eV  252.05 nm  f=0.0039  <S**2>=0.000
      44 -> 48         0.56880
      44 -> 51        -0.12593
      46 -> 50        -0.39717

 Excited State   9:      Singlet-A      4.9811 eV  248.91 nm  f=0.0000  <S**2>=0.000
      45 -> 50         0.70556

 Excited State  10:      Singlet-A      5.1105 eV  242.61 nm  f=0.0022  <S**2>=0.000
      44 -> 49         0.70530

 The electronic state is 1-A.
 Alpha  occ. eigenvalues --  -66.13163 -19.12888 -10.21179 -10.14995 -10.14995
 Alpha  occ. eigenvalues --  -10.14867 -10.14840 -10.14752 -10.14613 -10.14296
 Alpha  occ. eigenvalues --  -10.10859  -5.27252  -3.63347  -3.63056  -3.63039
 Alpha  occ. eigenvalues --   -1.99862  -0.99740  -0.79547  -0.70424  -0.69839
 Alpha  occ. eigenvalues --   -0.67533  -0.66636  -0.66466  -0.56860  -0.55139
 Alpha  occ. eigenvalues --   -0.50542  -0.43074  -0.41638  -0.41278  -0.39965
 Alpha  occ. eigenvalues --   -0.39494  -0.39075  -0.38630  -0.38101  -0.37304
 Alpha  occ. eigenvalues --   -0.36877  -0.36646  -0.36374  -0.32210  -0.30126
 Alpha  occ. eigenvalues --   -0.29015  -0.27336  -0.26855  -0.20773  -0.18986
 Alpha  occ. eigenvalues --   -0.17962
 Alpha virt. eigenvalues --   -0.04950   0.00336   0.00529   0.03980   0.05665
 Alpha virt. eigenvalues --    0.05873   0.08610   0.09557   0.11285   0.11852
 Alpha virt. eigenvalues --    0.12089   0.12103   0.13712   0.14159   0.15214

 Mulliken atomic charges:
              1
     1  Li  -0.299712
     2  C   -0.001863
     3  C   -0.184885
     4  C   -0.151597
     5  C    0.412778
     6  C   -0.126646
     7  C   -0.189567
     8  O   -0.568599
     9  Si   0.883096
    10  C   -0.669250
    11  C   -0.689678
    12  C   -0.689674
    13  H    0.171329
    14  H    0.161973
    15  H    0.169047
    16  H    0.170291
    17  H    0.179300
    18  H    0.179300
    19  H    0.176145
    20  H    0.181030
    21  H    0.180481
    22  H    0.172595
    23  H    0.181030
    24  H    0.172596
    25  H    0.180481
 Sum of Mulliken atomic charges =  -0.00000

 Dipole moment (field-independent basis, Debye):
    X=            -13.6415    Y=              1.6170    Z=             -0.0004  Tot=             13.7370
 Quadrupole moment (field-independent basis, Debye-Ang):
   XX=           -163.3889   YY=            -77.0858   ZZ=            -81.3961
   XY=             16.5598   XZ=             -0.0037   YZ=              0.0007

 Summary of Natural Population Analysis:

                                       Natural Population
                Natural  -----------------------------------------------
    Atom  No    Charge         Core      Valence    Rydberg      Total
 -----------------------------------------------------------------------
     Li    1   -0.05976      1.99879     1.05821    0.00276     3.05976
      C    2   -0.29429      1.99936     4.27168    0.02325     6.29429
      C    3   -0.20629      1.99918     4.19055    0.01656     6.20629
      C    4   -0.28342      1.99901     4.27241    0.01199     6.28342
      C    5    0.43276      1.99874     3.54770    0.02080     5.56724
      C    6   -0.24299      1.99901     4.23003    0.01395     6.24299
      C    7   -0.22806      1.99918     4.21285    0.01603     6.22806
      O    8   -0.78906      1.99977     6.77728    0.01201     8.78906
     Si    9    2.00419      9.99783     1.95489    0.04309    11.99581
      C   10   -1.22080      1.99949     5.21264    0.00867     7.22080
      C   11   -1.22441      1.99948     5.21592    0.00900     7.22441
      C   12   -1.22441      1.99948     5.21593    0.00900     7.22441
      H   13    0.24221      0.00000     0.75701    0.00078     0.75779
      H   14    0.24125      0.00000     0.75761    0.00115     0.75875
      H   15    0.25631      0.00000     0.74258    0.00111     0.74369
      H   16    0.24373      0.00000     0.75554    0.00073     0.75627
      H   17    0.26130      0.00000     0.73793    0.00076     0.73870
      H   18    0.26130      0.00000     0.73793    0.00076     0.73870
      H   19    0.26065      0.00000     0.73889    0.00046     0.73935
      H   20    0.26256      0.00000     0.73668    0.00076     0.73744
      H   21    0.26522      0.00000     0.73434    0.00044     0.73478
      H   22    0.25506      0.00000     0.74429    0.00065     0.74494
      H   23    0.26256      0.00000     0.73668    0.00076     0.73744
      H   24    0.25506      0.00000     0.74429    0.00065     0.74494
      H   25    0.26522      0.00000     0.73434    0.00044     0.73478
 =======================================================================
   * Total *   -0.00409     31.98932    59.81821    0.19656    92.00409

 Normal termination of Gaussian 09 at Sun Oct  3 02:54:32 2021.
