 Gaussian 09, Revision A.02,

 -----------------------------------
 #p opt b3lyp/6-31G* scf=(xqc,tight)
 -----------------------------------

 --------------------------
 COc1ccc(cc1)C(=O)OC_conf_0
 --------------------------
 Symbolic Z-matrix:
 Charge =  0 Multiplicity = 1

 SCF Done:  E(RB3LYP) =  -574.650520410     A.U. after   15 cycles
 SCF Done:  E(RB3LYP) =  -574.652940132     A.U. after   12 cycles
 SCF Done:  E(RB3LYP) =  -574.652857288     A.U. after   12 cycles
 SCF Done:  E(RB3LYP) =  -574.653190034     A.U. after   11 cycles
 SCF Done:  E(RB3LYP) =  -574.653287706     A.U. after   16 cycles
 SCF Done:  E(RB3LYP) =  -574.653377869     A.U. after   16 cycles
 SCF Done:  E(RB3LYP) =  -574.653379228     A.U. after    8 cycles
 SCF Done:  E(RB3LYP) =  -574.653380117     A.U. after    8 cycles
 SCF Done:  E(RB3LYP) =  -574.653380402     A.U. after    8 cycles
 SCF Done:  E(RB3LYP) =  -574.653380468     A.U. after    7 cycles
 Optimization completed.
    -- Stationary point found.
 Normal termination of Gaussian 09 at Thu Sep 30 23:01:42 2021.

 ----------------------------------------------------------------------
 #p freq b3lyp/6-31G* volume NMR pop=NPA density=current Geom=AllCheck
 Guess=Read
 ----------------------------------------------------------------------

 COc1ccc(cc1)C(=O)OC_conf_0
 --------------------------
 Redundant internal coordinates taken from checkpoint file:
 C9H10O3_5495_conf_0.chk
 Charge =  0 Multiplicity = 1

 SCF Done:  E(RB3LYP) =  -574.653380468     A.U. after    1 cycles

  1  C    Isotropic =   137.1982   Anisotropy =    65.6207

  2  O    Isotropic =   227.7774   Anisotropy =    95.3596

  3  C    Isotropic =    35.6204   Anisotropy =   131.8677

  4  C    Isotropic =    86.6526   Anisotropy =   142.2724

  5  C    Isotropic =    62.1156   Anisotropy =   175.9646

  6  C    Isotropic =    73.0621   Anisotropy =   140.2916

  7  C    Isotropic =    64.9632   Anisotropy =   170.2529

  8  C    Isotropic =    78.8486   Anisotropy =   133.4031

  9  C    Isotropic =    32.7497   Anisotropy =    74.9047

 10  O    Isotropic =   -37.6799   Anisotropy =   562.6007

 11  O    Isotropic =   169.1876   Anisotropy =   132.2738

 12  C    Isotropic =   139.2957   Anisotropy =    61.9493

 13  H    Isotropic =    28.2645   Anisotropy =     7.8676

 14  H    Isotropic =    28.5978   Anisotropy =     7.9367

 15  H    Isotropic =    28.5980   Anisotropy =     7.9364

 16  H    Isotropic =    25.7585   Anisotropy =     7.3487

 17  H    Isotropic =    24.0926   Anisotropy =     7.4972

 18  H    Isotropic =    24.3689   Anisotropy =     8.0283

 19  H    Isotropic =    25.5506   Anisotropy =     5.9959

 20  H    Isotropic =    28.7708   Anisotropy =     7.2048

 21  H    Isotropic =    28.3635   Anisotropy =     8.3254

 22  H    Isotropic =    28.3657   Anisotropy =     8.3291

  Exact polarizability: 165.232   1.063 101.447  -0.002  -0.002  49.042
 Approx polarizability: 222.415  -9.212 180.401  -0.003  -0.003  72.089

                     1                      2                      3
                     A                      A                      A
 Frequencies --    50.1398                76.8012               109.1886
 Red. masses --     3.7606                 3.8507                 2.8971
 Frc consts  --     0.0056                 0.0134                 0.0203
 IR Inten    --     3.6712                 0.0093                 0.4592

                     4                      5                      6
                     A                      A                      A
 Frequencies --   133.4254               134.2730               169.6724
 Red. masses --     4.1700                 1.2690                 3.2985
 Frc consts  --     0.0437                 0.0135                 0.0559
 IR Inten    --     2.0474                 1.1251                 7.1931

                     7                      8                      9
                     A                      A                      A
 Frequencies --   236.2579               239.1808               319.5075
 Red. masses --     1.1848                 3.5642                 4.6724
 Frc consts  --     0.0390                 0.1201                 0.2810
 IR Inten    --     0.8812                 3.2799                 7.7134

                    10                     11                     12
                     A                      A                      A
 Frequencies --   322.6056               337.6748               427.8788
 Red. masses --     4.7675                 5.5783                 3.1678
 Frc consts  --     0.2923                 0.3748                 0.3417
 IR Inten    --     0.0109                 8.1584                 0.0067

                    13                     14                     15
                     A                      A                      A
 Frequencies --   453.8994               522.0020               523.3795
 Red. masses --     5.4555                 2.8368                 4.5395
 Frc consts  --     0.6622                 0.4554                 0.7326
 IR Inten    --     9.3599                 2.1446                 0.7498

                    16                     17                     18
                     A                      A                      A
 Frequencies --   621.0808               647.8705               701.6177
 Red. masses --     5.8753                 7.0764                 3.8636
 Frc consts  --     1.3353                 1.7500                 1.1206
 IR Inten    --    21.9734                 4.5829                10.7601

                    19                     20                     21
                     A                      A                      A
 Frequencies --   770.5026               794.5897               832.0921
 Red. masses --     5.6339                 5.2598                 1.2596
 Frc consts  --     1.9707                 1.9566                 0.5138
 IR Inten    --    32.4977                 1.3677                 1.1358

                    22                     23                     24
                     A                      A                      A
 Frequencies --   849.0904               859.1506               974.0918
 Red. masses --     5.6347                 1.7750                 1.3095
 Frc consts  --     2.3935                 0.7720                 0.7321
 IR Inten    --     8.3832                33.2378                 0.0883

                    25                     26                     27
                     A                      A                      A
 Frequencies --   980.1334              1004.9031              1032.6772
 Red. masses --     1.3041                 7.1418                 2.7254
 Frc consts  --     0.7381                 4.2492                 1.7124
 IR Inten    --     0.2639                 7.5982                 5.7582

                    28                     29                     30
                     A                      A                      A
 Frequencies --  1073.8813              1141.2507              1149.3779
 Red. masses --     6.5358                 1.4884                 2.7069
 Frc consts  --     4.4408                 1.1422                 2.1069
 IR Inten    --    71.0359                45.7362                77.8552

                    31                     32                     33
                     A                      A                      A
 Frequencies --  1182.6920              1185.5568              1201.2961
 Red. masses --     1.2705                 1.2725                 1.1945
 Frc consts  --     1.0471                 1.0538                 1.0157
 IR Inten    --     0.7449                 0.8276               202.4386

                    34                     35                     36
                     A                      A                      A
 Frequencies --  1216.7329              1223.6237              1304.5200
 Red. masses --     1.3883                 1.5829                 6.0294
 Frc consts  --     1.2109                 1.3964                 6.0454
 IR Inten    --     5.4932                50.5832               661.3911

                    37                     38                     39
                     A                      A                      A
 Frequencies --  1316.7578              1339.9794              1371.6440
 Red. masses --     3.3075                 1.3720                 8.6412
 Frc consts  --     3.3787                 1.4514                 9.5787
 IR Inten    --   128.6045                14.4814               108.3179

                    40                     41                     42
                     A                      A                      A
 Frequencies --  1466.0868              1492.3293              1499.0391
 Red. masses --     3.2050                 1.2007                 1.2156
 Frc consts  --     4.0588                 1.5755                 1.6094
 IR Inten    --     2.6292                33.5238                 3.0793

                    43                     44                     45
                     A                      A                      A
 Frequencies --  1512.0445              1520.7729              1525.5231
 Red. masses --     1.0485                 1.0481                 1.0487
 Frc consts  --     1.4124                 1.4282                 1.4380
 IR Inten    --     5.4187                 5.9513                 8.9287

                    46                     47                     48
                     A                      A                      A
 Frequencies --  1532.3947              1563.2888              1627.3853
 Red. masses --     1.0592                 2.5205                 6.9401
 Frc consts  --     1.4654                 3.6292                10.8292
 IR Inten    --    36.4375                41.6197                 4.1852

                    49                     50                     51
                     A                      A                      A
 Frequencies --  1667.9449              1795.5581              3031.6515
 Red. masses --     5.7037                11.6215                 1.0344
 Frc consts  --     9.3491                22.0755                 5.6014
 IR Inten    --   205.8145               244.9877                54.8235

                    52                     53                     54
                     A                      A                      A
 Frequencies --  3072.7167              3093.2720              3146.2219
 Red. masses --     1.0295                 1.1071                 1.1074
 Frc consts  --     5.7269                 6.2411                 6.4584
 IR Inten    --    42.6068                39.2420                23.1482

                    55                     56                     57
                     A                      A                      A
 Frequencies --  3162.5286              3177.0976              3213.7269
 Red. masses --     1.1003                 1.1070                 1.0889
 Frc consts  --     6.4839                 6.5834                 6.6263
 IR Inten    --    24.3396                19.3630                 5.6630

                    58                     59                     60
                     A                      A                      A
 Frequencies --  3218.6325              3232.6782              3235.1905
 Red. masses --     1.0878                 1.0933                 1.0936
 Frc consts  --     6.6398                 6.7317                 6.7440
 IR Inten    --     1.7397                11.0353                 2.1448

 - Thermochemistry -
 -------------------
 Temperature   298.150 Kelvin.  Pressure   1.00000 Atm.
 Atom     1 has atomic number  6 and mass  12.00000

 Molecular mass:   166.06299 amu.
 Principal axes and moments of inertia in atomic units:
                           1         2         3
     Eigenvalues --   556.909804233.098604767.09363
           X            0.99987   0.01607  -0.00000
           Y           -0.01607   0.99987  -0.00002
           Z            0.00000   0.00002   1.00000
 This molecule is an asymmetric top.
 Rotational symmetry number  1.
 Warning -- assumption of classical behavior for rotation
           may cause significant error
 Rotational temperatures (Kelvin)      0.15553     0.02046     0.01817
 Rotational constants (GHZ):           3.24063     0.42634     0.37858
 Zero-point vibrational energy     464253.3 (Joules/Mol)
                                  110.95919 (Kcal/Mol)
 Warning -- explicit consideration of  15 degrees of freedom as
           vibrations may cause significant error
 Vibrational temperatures:     72.14   110.50   157.10   191.97   193.19
          (Kelvin)            244.12   339.92   344.13   459.70   464.16
                              485.84   615.62   653.06   751.04   753.03
                              893.60   932.14  1009.47  1108.58  1143.24
                             1197.19  1221.65  1236.12  1401.50  1410.19
                             1445.83  1485.79  1545.07  1642.00  1653.70
                             1701.63  1705.75  1728.40  1750.61  1760.52
                             1876.91  1894.52  1927.93  1973.49  2109.37
                             2147.13  2156.78  2175.49  2188.05  2194.88
                             2204.77  2249.22  2341.44  2399.80  2583.40
                             4361.86  4420.95  4450.52  4526.71  4550.17
                             4571.13  4623.83  4630.89  4651.10  4654.71

 Zero-point correction=                           0.176825 (Hartree/Particle)
 Thermal correction to Energy=                    0.188221
 Thermal correction to Enthalpy=                  0.189165
 Thermal correction to Gibbs Free Energy=         0.138964
 Sum of electronic and zero-point Energies=           -574.476556
 Sum of electronic and thermal Energies=              -574.465160
 Sum of electronic and thermal Enthalpies=            -574.464216
 Sum of electronic and thermal Free Energies=         -574.514416

                     E (Thermal)             CV                S
                      KCal/Mol        Cal/Mol-Kelvin    Cal/Mol-Kelvin
 Total                  118.110             41.546            105.656
 Electronic               0.000              0.000              0.000
 Translational            0.889              2.981             41.230
 Rotational               0.889              2.981             30.797
 Vibrational            116.333             35.584             33.629
 Vibration     1          0.595              1.978              4.812
 Vibration     2          0.599              1.965              3.971
 Vibration     3          0.606              1.942              3.283
 Vibration     4          0.613              1.920              2.896
 Vibration     5          0.613              1.919              2.884
 Vibration     6          0.625              1.880              2.439
 Vibration     7          0.655              1.785              1.831
 Vibration     8          0.657              1.781              1.809
 Vibration     9          0.705              1.636              1.313
 Vibration    10          0.708              1.630              1.297
 Vibration    11          0.718              1.600              1.223
 Vibration    12          0.789              1.410              0.866
 Vibration    13          0.812              1.352              0.784
 Vibration    14          0.877              1.201              0.605
 Vibration    15          0.878              1.198              0.602

 Normal termination of Gaussian 09 at Thu Sep 30 23:41:09 2021.
 Gaussian 09:  AM64L-G09RevA.02 11-Jun-2009

 ----------------------------------------------------------------------
 #p TD(NStates=10, Root=1) b3lyp/6-31G* volume pop=NPA density=current
 Geom=AllCheck Guess=Read
 ----------------------------------------------------------------------

 COc1ccc(cc1)C(=O)OC_conf_0
 --------------------------
 Redundant internal coordinates taken from checkpoint file:
 C9H10O3_5495_conf_0.chk
 Charge =  0 Multiplicity = 1

                         Standard orientation:
 ---------------------------------------------------------------------
 Center     Atomic      Atomic             Coordinates (Angstroms)
 Number     Number       Type             X           Y           Z
 ---------------------------------------------------------------------
      1          6           0        4.377975    0.417176   -0.000236
      2          8           0        3.424105   -0.635894    0.000092
      3          6           0        2.102361   -0.316292    0.000074
      4          6           0        1.599189    0.992827   -0.000089
      5          6           0        0.221655    1.196779   -0.000087
      6          6           0       -0.668899    0.117873    0.000026
      7          6           0       -0.153624   -1.190310    0.000208
      8          6           0        1.215095   -1.406135    0.000236
      9          6           0       -2.123214    0.410673    0.000070
     10          8           0       -2.607135    1.527303    0.000432
     11          8           0       -2.878913   -0.716090   -0.000381
     12          6           0       -4.296450   -0.499159   -0.000206
     13          1           0        5.355752   -0.067372   -0.000296
     14          1           0        4.283862    1.045425    0.894763
     15          1           0        4.283590    1.045116   -0.895421
     16          1           0        2.265220    1.847746   -0.000198
     17          1           0       -0.183860    2.203377   -0.000176
     18          1           0       -0.835125   -2.033527    0.000289
     19          1           0        1.629041   -2.409454    0.000384
     20          1           0       -4.744675   -1.493528   -0.001291
     21          1           0       -4.601357    0.060520   -0.888717
     22          1           0       -4.601415    0.058552    0.889536
 ---------------------------------------------------------------------

 SCF Done:  E(RB3LYP) =  -574.653380468     A.U. after    2 cycles

 Excitation energies and oscillator strengths:

 Excited State   1:      Singlet-A      4.9721 eV  249.36 nm  f=0.0003  <S**2>=0.000
      42 -> 45         0.69417
      42 -> 47         0.12974
 This state for optimization and/or second-order correction.
 Total Energy, E(TD-HF/TD-KS) =  -574.470657955
 Copying the excited state density for this state as the 1-particle RhoCI density.

 Excited State   2:      Singlet-A      5.0107 eV  247.44 nm  f=0.0081  <S**2>=0.000
      43 -> 45        -0.48580
      44 -> 45        -0.10331
      44 -> 46         0.49684

 Excited State   3:      Singlet-A      5.0445 eV  245.78 nm  f=0.4113  <S**2>=0.000
      43 -> 46         0.14421
      44 -> 45         0.67958

 Excited State   4:      Singlet-A      6.0658 eV  204.40 nm  f=0.1471  <S**2>=0.000
      40 -> 46         0.10181
      41 -> 45         0.10431
      43 -> 45         0.49114
      43 -> 47         0.13201
      44 -> 46         0.46664

 Excited State   5:      Singlet-A      6.2625 eV  197.98 nm  f=0.0000  <S**2>=0.000
      42 -> 46         0.70571

 Excited State   6:      Singlet-A      6.6199 eV  187.29 nm  f=0.0756  <S**2>=0.000
      41 -> 45         0.67609
      43 -> 46         0.10355

 Excited State   7:      Singlet-A      6.8576 eV  180.80 nm  f=0.4970  <S**2>=0.000
      41 -> 45        -0.10645
      43 -> 46         0.64843
      44 -> 45        -0.13382
      44 -> 47        -0.17421

 Excited State   8:      Singlet-A      7.0008 eV  177.10 nm  f=0.0000  <S**2>=0.000
      39 -> 45         0.69227

 Excited State   9:      Singlet-A      7.1323 eV  173.83 nm  f=0.0027  <S**2>=0.000
      40 -> 45        -0.20064
      41 -> 46         0.67010

 Excited State  10:      Singlet-A      7.2942 eV  169.98 nm  f=0.0334  <S**2>=0.000
      40 -> 45         0.65905
      41 -> 46         0.18887
      44 -> 47         0.13822

 The electronic state is 1-A.
 Alpha  occ. eigenvalues --  -19.18833 -19.18540 -19.12485 -10.30679 -10.25893
 Alpha  occ. eigenvalues --  -10.24850 -10.23559 -10.19816 -10.19795 -10.19547
 Alpha  occ. eigenvalues --  -10.19461 -10.19065  -1.09285  -1.07437  -1.00291
 Alpha  occ. eigenvalues --   -0.85882  -0.77438  -0.75593  -0.72625  -0.69978
 Alpha  occ. eigenvalues --   -0.61748  -0.61285  -0.56218  -0.54212  -0.51693
 Alpha  occ. eigenvalues --   -0.48867  -0.47675  -0.47395  -0.46003  -0.45055
 Alpha  occ. eigenvalues --   -0.43304  -0.42743  -0.41569  -0.39956  -0.38677
 Alpha  occ. eigenvalues --   -0.37699  -0.36582  -0.35053  -0.33110  -0.32252
 Alpha  occ. eigenvalues --   -0.29467  -0.26622  -0.25774  -0.22750
 Alpha virt. eigenvalues --   -0.03254  -0.00500   0.06993   0.09014   0.10264
 Alpha virt. eigenvalues --    0.11829   0.12924   0.13897   0.14854   0.15112
 Alpha virt. eigenvalues --    0.16039   0.16179   0.16989   0.18137   0.18770

 Mulliken atomic charges:
              1
     1  C   -0.208410
     2  O   -0.510817
     3  C    0.348577
     4  C   -0.198307
     5  C   -0.208557
     6  C    0.065634
     7  C   -0.190072
     8  C   -0.175318
     9  C    0.551722
    10  O   -0.301830
    11  O   -0.434434
    12  C   -0.238454
    13  H    0.163234
    14  H    0.146328
    15  H    0.146334
    16  H    0.122231
    17  H    0.122653
    18  H    0.130780
    19  H    0.130377
    20  H    0.185313
    21  H    0.176511
    22  H    0.176506
 Sum of Mulliken atomic charges =  -0.00000

 Dipole moment (field-independent basis, Debye):
    X=             -2.7643    Y=              0.5834    Z=             -0.0005  Tot=              2.8252
 Quadrupole moment (field-independent basis, Debye-Ang):
   XX=            -45.9316   YY=            -68.2569   ZZ=            -71.9575
   XY=              7.5212   XZ=             -0.0002   YZ=             -0.0011

 Summary of Natural Population Analysis:

                                       Natural Population
                Natural  -----------------------------------------------
    Atom  No    Charge         Core      Valence    Rydberg      Total
 -----------------------------------------------------------------------
      C    1   -0.31416      1.99943     4.30094    0.01379     6.31416
      O    2   -0.52400      1.99974     6.51240    0.01186     8.52400
      C    3    0.27297      1.99881     3.70553    0.02268     5.72703
      C    4   -0.31063      1.99904     4.29926    0.01233     6.31063
      C    5   -0.23593      1.99907     4.22229    0.01457     6.23593
      C    6   -0.22249      1.99888     4.20734    0.01627     6.22249
      C    7   -0.22874      1.99905     4.21565    0.01404     6.22874
      C    8   -0.26623      1.99903     4.25265    0.01454     6.26623
      C    9    0.65170      1.99930     3.31102    0.03798     5.34830
      O   10   -0.25346      1.99981     6.23517    0.01848     8.25346
      O   11   -0.48060      1.99977     6.47019    0.01065     8.48060
      C   12   -0.32648      1.99943     4.31280    0.01425     6.32648
      H   13    0.22438      0.00000     0.77507    0.00055     0.77562
      H   14    0.19861      0.00000     0.79921    0.00218     0.80139
      H   15    0.19861      0.00000     0.79920    0.00218     0.80139
      H   16    0.23447      0.00000     0.76466    0.00087     0.76553
      H   17    0.22996      0.00000     0.76956    0.00047     0.77004
      H   18    0.24202      0.00000     0.75710    0.00087     0.75798
      H   19    0.24413      0.00000     0.75465    0.00122     0.75587
      H   20    0.23419      0.00000     0.76545    0.00036     0.76581
      H   21    0.21584      0.00000     0.78278    0.00139     0.78416
      H   22    0.21584      0.00000     0.78277    0.00139     0.78416
 =======================================================================
   * Total *   -0.00000     23.99137    63.79569    0.21294    88.00000

 Normal termination of Gaussian 09 at Fri Oct  1 02:15:41 2021.
