 Gaussian 09, Revision A.02,

 -----------------------------------
 #p opt b3lyp/6-31G* scf=(xqc,tight)
 -----------------------------------

 ----------------------
 CCn1cnc2c1cccc2_conf_0
 ----------------------
 Symbolic Z-matrix:
 Charge =  0 Multiplicity = 1

 SCF Done:  E(RB3LYP) =  -458.492866743     A.U. after   15 cycles
 SCF Done:  E(RB3LYP) =  -458.495228285     A.U. after   12 cycles
 SCF Done:  E(RB3LYP) =  -458.495526421     A.U. after   11 cycles
 SCF Done:  E(RB3LYP) =  -458.495591112     A.U. after   10 cycles
 SCF Done:  E(RB3LYP) =  -458.495631498     A.U. after   11 cycles
 SCF Done:  E(RB3LYP) =  -458.495639183     A.U. after   10 cycles
 SCF Done:  E(RB3LYP) =  -458.495642077     A.U. after    8 cycles
 SCF Done:  E(RB3LYP) =  -458.495642639     A.U. after    8 cycles
 SCF Done:  E(RB3LYP) =  -458.495642800     A.U. after    8 cycles
 SCF Done:  E(RB3LYP) =  -458.495642786     A.U. after    8 cycles
 Optimization completed.
    -- Stationary point found.
 Normal termination of Gaussian 09 at Sun Oct  3 21:00:43 2021.

 ----------------------------------------------------------------------
 #p freq b3lyp/6-31G* volume NMR pop=NPA density=current Geom=AllCheck
 Guess=Read
 ----------------------------------------------------------------------

 CCn1cnc2c1cccc2_conf_0
 ----------------------
 Redundant internal coordinates taken from checkpoint file:
 C9H10N2_31bb_conf_0.chk
 Charge =  0 Multiplicity = 1

 SCF Done:  E(RB3LYP) =  -458.495642786     A.U. after    1 cycles

  1  C    Isotropic =   172.7680   Anisotropy =    25.4118

  2  C    Isotropic =   148.8812   Anisotropy =    39.5815

  3  N    Isotropic =   101.4864   Anisotropy =   101.7446

  4  C    Isotropic =    55.6553   Anisotropy =    76.5426

  5  N    Isotropic =     7.0283   Anisotropy =   353.1983

  6  C    Isotropic =    51.7785   Anisotropy =   135.1299

  7  C    Isotropic =    63.3734   Anisotropy =   137.4264

  8  C    Isotropic =    87.6444   Anisotropy =   141.7105

  9  C    Isotropic =    73.4297   Anisotropy =   157.9171

 10  C    Isotropic =    74.3229   Anisotropy =   156.7631

 11  C    Isotropic =    73.7752   Anisotropy =   150.4006

 12  H    Isotropic =    31.0568   Anisotropy =    10.2471

 13  H    Isotropic =    30.4332   Anisotropy =     6.4342

 14  H    Isotropic =    30.9479   Anisotropy =     7.7239

 15  H    Isotropic =    28.0470   Anisotropy =     6.6419

 16  H    Isotropic =    28.2473   Anisotropy =     7.1089

 17  H    Isotropic =    24.8860   Anisotropy =     5.3590

 18  H    Isotropic =    25.0687   Anisotropy =     7.4624

 19  H    Isotropic =    25.0486   Anisotropy =     5.2369

 20  H    Isotropic =    25.0218   Anisotropy =     4.6781

 21  H    Isotropic =    24.6091   Anisotropy =     5.0246

  Exact polarizability: 139.326   8.044 111.738  -7.684   5.177  50.475
 Approx polarizability: 214.133  14.397 195.621 -17.186  12.980  76.431

                     1                      2                      3
                     A                      A                      A
 Frequencies --    62.8529                87.4269               186.7358
 Red. masses --     2.4901                 3.6143                 1.4099
 Frc consts  --     0.0058                 0.0163                 0.0290
 IR Inten    --     0.1375                 0.2518                 0.3886

                     4                      5                      6
                     A                      A                      A
 Frequencies --   232.4971               238.5574               278.1985
 Red. masses --     4.2682                 3.3871                 1.7528
 Frc consts  --     0.1359                 0.1136                 0.0799
 IR Inten    --     1.1233                 1.4835                 0.7435

                     7                      8                      9
                     A                      A                      A
 Frequencies --   405.1033               436.3962               482.4982
 Red. masses --     3.8389                 2.9693                 3.9467
 Frc consts  --     0.3712                 0.3332                 0.5414
 IR Inten    --     0.9398                 4.3262                 3.7911

                    10                     11                     12
                     A                      A                      A
 Frequencies --   541.9239               586.0542               599.2442
 Red. masses --     5.3499                 4.5365                 4.3350
 Frc consts  --     0.9257                 0.9180                 0.9172
 IR Inten    --     0.7835                 1.4163                 1.5169

                    13                     14                     15
                     A                      A                      A
 Frequencies --   641.1290               714.2050               756.6646
 Red. masses --     3.6745                 4.6482                 1.3524
 Frc consts  --     0.8899                 1.3970                 0.4562
 IR Inten    --     4.3824                 3.6643                58.2024

                    16                     17                     18
                     A                      A                      A
 Frequencies --   777.8207               784.1157               814.1016
 Red. masses --     3.5852                 2.2806                 1.6541
 Frc consts  --     1.2780                 0.8262                 0.6459
 IR Inten    --     3.4391                 8.2520                 2.6903

                    19                     20                     21
                     A                      A                      A
 Frequencies --   850.4574               865.2357               896.9306
 Red. masses --     1.3521                 1.5319                 5.6767
 Frc consts  --     0.5762                 0.6757                 2.6907
 IR Inten    --     2.2959                 3.2565                 4.8327

                    22                     23                     24
                     A                      A                      A
 Frequencies --   929.7948               966.7803               972.7384
 Red. masses --     1.3465                 2.3975                 1.2374
 Frc consts  --     0.6858                 1.3203                 0.6899
 IR Inten    --     2.1643                 8.7480                 0.0999

                    25                     26                     27
                     A                      A                      A
 Frequencies --  1037.0040              1083.2863              1119.9372
 Red. masses --     2.0480                 2.7231                 1.7605
 Frc consts  --     1.2976                 1.8828                 1.3010
 IR Inten    --     4.7893                10.9578                 5.1967

                    28                     29                     30
                     A                      A                      A
 Frequencies --  1125.2548              1161.9805              1185.3640
 Red. masses --     2.2494                 1.5603                 1.2237
 Frc consts  --     1.6781                 1.2413                 1.0131
 IR Inten    --     3.7234                 7.1893                 5.6876

                    31                     32                     33
                     A                      A                      A
 Frequencies --  1233.0074              1260.0843              1313.3928
 Red. masses --     1.9028                 1.7330                 1.7032
 Frc consts  --     1.7044                 1.6213                 1.7311
 IR Inten    --    11.0977                37.3988                25.0213

                    34                     35                     36
                     A                      A                      A
 Frequencies --  1323.3792              1377.5964              1402.7308
 Red. masses --     1.8781                 4.4970                 2.2586
 Frc consts  --     1.9380                 5.0283                 2.6185
 IR Inten    --    22.8182                19.6558                48.1839

                    37                     38                     39
                     A                      A                      A
 Frequencies --  1406.3388              1423.9535              1442.5106
 Red. masses --     1.6970                 2.2062                 1.2634
 Frc consts  --     1.9775                 2.6357                 1.5490
 IR Inten    --    14.1641                 2.2852                12.4407

                    40                     41                     42
                     A                      A                      A
 Frequencies --  1499.4365              1515.7913              1520.1329
 Red. masses --     2.4839                 1.1942                 1.0562
 Frc consts  --     3.2903                 1.6166                 1.4379
 IR Inten    --    44.0383                 1.5924                 8.9395

                    43                     44                     45
                     A                      A                      A
 Frequencies --  1530.8274              1535.4713              1551.3951
 Red. masses --     2.4302                 1.2004                 3.3479
 Frc consts  --     3.3555                 1.6675                 4.7476
 IR Inten    --     0.2218                 4.1865                81.6387

                    46                     47                     48
                     A                      A                      A
 Frequencies --  1635.4572              1672.4049              3060.0311
 Red. masses --     6.3572                 6.7159                 1.0358
 Frc consts  --    10.0183                11.0671                 5.7144
 IR Inten    --     1.5213                12.9913                18.2001

                    49                     50                     51
                     A                      A                      A
 Frequencies --  3064.0571              3104.6233              3131.1533
 Red. masses --     1.0609                 1.1044                 1.1023
 Frc consts  --     5.8682                 6.2717                 6.3676
 IR Inten    --    31.2549                 5.2513                31.7768

                    52                     53                     54
                     A                      A                      A
 Frequencies --  3140.6724              3183.9515              3194.2513
 Red. masses --     1.1043                 1.0853                 1.0896
 Frc consts  --     6.4177                 6.4826                 6.5501
 IR Inten    --    24.1947                 0.2726                15.8421

                    55                     56                     57
                     A                      A                      A
 Frequencies --  3205.9306              3216.7321              3243.7692
 Red. masses --     1.0942                 1.0954                 1.0955
 Frc consts  --     6.6261                 6.6782                 6.7915
 IR Inten    --    26.6354                15.9187                 4.0933

 - Thermochemistry -
 -------------------
 Temperature   298.150 Kelvin.  Pressure   1.00000 Atm.
 Atom     1 has atomic number  6 and mass  12.00000

 Molecular mass:   146.08440 amu.
 Principal axes and moments of inertia in atomic units:
                           1         2         3
     Eigenvalues --   868.163461885.080562601.56714
           X            0.99988  -0.01535   0.00310
           Y            0.01536   0.99988  -0.00331
           Z           -0.00305   0.00336   0.99999
 This molecule is an asymmetric top.
 Rotational symmetry number  1.
 Warning -- assumption of classical behavior for rotation
           may cause significant error
 Rotational temperatures (Kelvin)      0.09977     0.04595     0.03329
 Rotational constants (GHZ):           2.07880     0.95738     0.69371
 Zero-point vibrational energy     460618.3 (Joules/Mol)
                                  110.09042 (Kcal/Mol)
 Warning -- explicit consideration of  12 degrees of freedom as
           vibrations may cause significant error
 Vibrational temperatures:     90.43   125.79   268.67   334.51   343.23
          (Kelvin)            400.27   582.85   627.88   694.21   779.71
                              843.20   862.18   922.44  1027.58  1088.67
                             1119.11  1128.17  1171.31  1223.62  1244.88
                             1290.48  1337.77  1390.98  1399.55  1492.02
                             1558.61  1611.34  1618.99  1671.83  1705.47
                             1774.02  1812.98  1889.68  1904.05  1982.05
                             2018.21  2023.41  2048.75  2075.45  2157.35
                             2180.88  2187.13  2202.52  2209.20  2232.11
                             2353.06  2406.21  4402.70  4408.49  4466.85
                             4505.03  4518.72  4580.99  4595.81  4612.61
                             4628.15  4667.05

 Zero-point correction=                           0.175440 (Hartree/Particle)
 Thermal correction to Energy=                    0.184375
 Thermal correction to Enthalpy=                  0.185319
 Thermal correction to Gibbs Free Energy=         0.141029
 Sum of electronic and zero-point Energies=           -458.320203
 Sum of electronic and thermal Energies=              -458.311268
 Sum of electronic and thermal Enthalpies=            -458.310324
 Sum of electronic and thermal Free Energies=         -458.354614

                     E (Thermal)             CV                S
                      KCal/Mol        Cal/Mol-Kelvin    Cal/Mol-Kelvin
 Total                  115.697             35.046             93.216
 Electronic               0.000              0.000              0.000
 Translational            0.889              2.981             40.848
 Rotational               0.889              2.981             29.833
 Vibrational            113.919             29.084             22.536
 Vibration     1          0.597              1.972              4.366
 Vibration     2          0.601              1.958              3.717
 Vibration     3          0.632              1.858              2.260
 Vibration     4          0.653              1.791              1.860
 Vibration     5          0.657              1.782              1.814
 Vibration     6          0.679              1.714              1.545
 Vibration     7          0.770              1.459              0.944
 Vibration     8          0.797              1.391              0.838
 Vibration     9          0.839              1.289              0.703
 Vibration    10          0.897              1.157              0.561
 Vibration    11          0.943              1.062              0.474
 Vibration    12          0.957              1.033              0.451

 Normal termination of Gaussian 09 at Sun Oct  3 21:53:38 2021.
 Gaussian 09:  AM64L-G09RevA.02 11-Jun-2009

 ----------------------------------------------------------------------
 #p TD(NStates=10, Root=1) b3lyp/6-31G* volume pop=NPA density=current
 Geom=AllCheck Guess=Read
 ----------------------------------------------------------------------

 CCn1cnc2c1cccc2_conf_0
 ----------------------
 Redundant internal coordinates taken from checkpoint file:
 C9H10N2_31bb_conf_0.chk
 Charge =  0 Multiplicity = 1

                         Standard orientation:
 ---------------------------------------------------------------------
 Center     Atomic      Atomic             Coordinates (Angstroms)
 Number     Number       Type             X           Y           Z
 ---------------------------------------------------------------------
      1          6           0        2.933750   -1.069347    0.762608
      2          6           0        2.412077   -0.396069   -0.510216
      3          7           0        1.175189    0.345378   -0.303337
      4          6           0        1.048691    1.704777   -0.115151
      5          7           0       -0.174568    2.111069    0.108143
      6          6           0       -0.933215    0.947955    0.075737
      7          6           0       -0.105454   -0.173968   -0.177537
      8          6           0       -0.612533   -1.473202   -0.269343
      9          6           0       -1.986408   -1.624443   -0.099107
     10          6           0       -2.823886   -0.519086    0.154591
     11          6           0       -2.312453    0.771381    0.243515
     12          1           0        3.855584   -1.620888    0.546748
     13          1           0        2.198976   -1.773528    1.165364
     14          1           0        3.149685   -0.324841    1.535813
     15          1           0        2.235592   -1.139923   -1.295731
     16          1           0        3.152099    0.309903   -0.901370
     17          1           0        1.918609    2.349779   -0.165119
     18          1           0        0.026248   -2.329943   -0.465190
     19          1           0       -2.422084   -2.617808   -0.162873
     20          1           0       -3.890363   -0.683174    0.281957
     21          1           0       -2.952107    1.627307    0.436176
 ---------------------------------------------------------------------

 SCF Done:  E(RB3LYP) =  -458.495642786     A.U. after    1 cycles

 Excitation energies and oscillator strengths:

 Excited State   1:      Singlet-A      5.0279 eV  246.59 nm  f=0.0368  <S**2>=0.000
      38 -> 40         0.54487
      38 -> 41        -0.11105
      39 -> 40        -0.28511
      39 -> 41        -0.32064
 This state for optimization and/or second-order correction.
 Total Energy, E(TD-HF/TD-KS) =  -458.310872163
 Copying the excited state density for this state as the 1-particle RhoCI density.

 Excited State   2:      Singlet-A      5.2483 eV  236.24 nm  f=0.0921  <S**2>=0.000
      38 -> 40         0.25025
      38 -> 41         0.19542
      39 -> 40         0.59233
      39 -> 41        -0.17335

 Excited State   3:      Singlet-A      5.7297 eV  216.39 nm  f=0.0013  <S**2>=0.000
      37 -> 40         0.70068

 Excited State   4:      Singlet-A      6.3931 eV  193.93 nm  f=0.2792  <S**2>=0.000
      36 -> 40        -0.24724
      38 -> 40         0.28628
      38 -> 41         0.24977
      38 -> 42         0.15126
      39 -> 41         0.47138
      39 -> 42         0.20482

 Excited State   5:      Singlet-A      6.5803 eV  188.42 nm  f=0.3451  <S**2>=0.000
      38 -> 41         0.55028
      38 -> 42         0.20336
      39 -> 40        -0.17111
      39 -> 41        -0.21103
      39 -> 42        -0.23592

 Excited State   6:      Singlet-A      6.7912 eV  182.57 nm  f=0.2646  <S**2>=0.000
      36 -> 40         0.45119
      38 -> 40         0.19347
      38 -> 42         0.13462
      39 -> 41         0.27018
      39 -> 42        -0.38052

 Excited State   7:      Singlet-A      6.8480 eV  181.05 nm  f=0.0006  <S**2>=0.000
      37 -> 41         0.70264

 Excited State   8:      Singlet-A      6.9617 eV  178.09 nm  f=0.0424  <S**2>=0.000
      36 -> 41        -0.20329
      38 -> 41        -0.19204
      38 -> 42         0.60500
      39 -> 41        -0.10058
      39 -> 42         0.13462

 Excited State   9:      Singlet-A      7.1585 eV  173.20 nm  f=0.0809  <S**2>=0.000
      36 -> 40         0.31964
      38 -> 41         0.13034
      39 -> 40        -0.10594
      39 -> 42         0.36520
      39 -> 43         0.46369

 Excited State  10:      Singlet-A      7.3538 eV  168.60 nm  f=0.0178  <S**2>=0.000
      36 -> 40         0.23244
      38 -> 43         0.49952
      39 -> 42         0.19397
      39 -> 43        -0.35597

 The electronic state is 1-A.
 Alpha  occ. eigenvalues --  -14.38867 -14.30972 -10.24617 -10.24583 -10.21697
 Alpha  occ. eigenvalues --  -10.20076 -10.19645 -10.19123 -10.18493 -10.18132
 Alpha  occ. eigenvalues --  -10.17992  -1.01438  -0.89086  -0.83588  -0.77551
 Alpha  occ. eigenvalues --   -0.73464  -0.72942  -0.66020  -0.62561  -0.59507
 Alpha  occ. eigenvalues --   -0.57219  -0.51929  -0.50250  -0.47600  -0.46452
 Alpha  occ. eigenvalues --   -0.45468  -0.43373  -0.42663  -0.40791  -0.40074
 Alpha  occ. eigenvalues --   -0.39116  -0.37419  -0.35905  -0.34833  -0.33118
 Alpha  occ. eigenvalues --   -0.29128  -0.26516  -0.22267  -0.21811
 Alpha virt. eigenvalues --   -0.01062   0.02529   0.05753   0.07787   0.10907
 Alpha virt. eigenvalues --    0.11238   0.12959   0.14260   0.14950   0.15788
 Alpha virt. eigenvalues --    0.16522   0.17322   0.18339   0.18876   0.19936

 Mulliken atomic charges:
              1
     1  C   -0.444108
     2  C   -0.159301
     3  N   -0.470588
     4  C    0.178433
     5  N   -0.485129
     6  C    0.224499
     7  C    0.320550
     8  C   -0.177500
     9  C   -0.171401
    10  C   -0.124691
    11  C   -0.188608
    12  H    0.156944
    13  H    0.170639
    14  H    0.164917
    15  H    0.170193
    16  H    0.165195
    17  H    0.149929
    18  H    0.122824
    19  H    0.121417
    20  H    0.136602
    21  H    0.139184
 Sum of Mulliken atomic charges =  -0.00000

 Dipole moment (field-independent basis, Debye):
    X=              2.8851    Y=             -2.3192    Z=             -0.4430  Tot=              3.7281
 Quadrupole moment (field-independent basis, Debye-Ang):
   XX=            -52.5701   YY=            -68.2708   ZZ=            -66.8109
   XY=              1.1214   XZ=             -1.7579   YZ=             -0.0330

 Summary of Natural Population Analysis:

                                       Natural Population
                Natural  -----------------------------------------------
    Atom  No    Charge         Core      Valence    Rydberg      Total
 -----------------------------------------------------------------------
      C    1   -0.68724      1.99945     4.68049    0.00730     6.68724
      C    2   -0.25657      1.99935     4.24206    0.01516     6.25657
      N    3   -0.36687      1.99929     5.35407    0.01352     7.36687
      C    4    0.16197      1.99937     3.80835    0.03032     5.83803
      N    5   -0.46309      1.99948     5.44128    0.02233     7.46309
      C    6    0.12349      1.99900     3.85375    0.02376     5.87651
      C    7    0.14137      1.99898     3.83985    0.01980     5.85863
      C    8   -0.29660      1.99903     4.28016    0.01741     6.29660
      C    9   -0.28646      1.99917     4.26943    0.01786     6.28646
      C   10   -0.16493      1.99915     4.14992    0.01586     6.16493
      C   11   -0.26314      1.99904     4.24624    0.01786     6.26314
      H   12    0.24001      0.00000     0.75912    0.00087     0.75999
      H   13    0.23988      0.00000     0.75854    0.00157     0.76012
      H   14    0.23817      0.00000     0.76060    0.00122     0.76183
      H   15    0.24349      0.00000     0.75401    0.00250     0.75651
      H   16    0.24336      0.00000     0.75496    0.00167     0.75664
      H   17    0.21804      0.00000     0.78126    0.00070     0.78196
      H   18    0.23025      0.00000     0.76870    0.00105     0.76975
      H   19    0.23139      0.00000     0.76785    0.00076     0.76861
      H   20    0.23196      0.00000     0.76723    0.00081     0.76804
      H   21    0.24151      0.00000     0.75728    0.00121     0.75849
 =======================================================================
   * Total *   -0.00000     21.99130    55.79514    0.21355    78.00000

 Normal termination of Gaussian 09 at Mon Oct  4 01:21:12 2021.
