 Gaussian 09, Revision A.02,

 -----------------------------------
 #p opt b3lyp/6-31G* scf=(xqc,tight)
 -----------------------------------

 ------------------------------
 CCOC(=O)c1ccc(cc1)B(O)O_conf_0
 ------------------------------
 Symbolic Z-matrix:
 Charge =  0 Multiplicity = 1

 SCF Done:  E(RB3LYP) =  -675.405065283     A.U. after   15 cycles
 SCF Done:  E(RB3LYP) =  -675.421802170     A.U. after   13 cycles
 SCF Done:  E(RB3LYP) =  -675.426554054     A.U. after   13 cycles
 SCF Done:  E(RB3LYP) =  -675.432978211     A.U. after   13 cycles
 SCF Done:  E(RB3LYP) =  -675.437667194     A.U. after   13 cycles
 SCF Done:  E(RB3LYP) =  -675.444014655     A.U. after   12 cycles
 SCF Done:  E(RB3LYP) =  -675.448864699     A.U. after   13 cycles
 SCF Done:  E(RB3LYP) =  -675.451331214     A.U. after   13 cycles
 SCF Done:  E(RB3LYP) =  -675.454998843     A.U. after   13 cycles
 SCF Done:  E(RB3LYP) =  -675.456410515     A.U. after   12 cycles
 SCF Done:  E(RB3LYP) =  -675.457260340     A.U. after   12 cycles
 SCF Done:  E(RB3LYP) =  -675.457463155     A.U. after   11 cycles
 SCF Done:  E(RB3LYP) =  -675.457558760     A.U. after   11 cycles
 SCF Done:  E(RB3LYP) =  -675.457576544     A.U. after   10 cycles
 SCF Done:  E(RB3LYP) =  -675.457584487     A.U. after   10 cycles
 SCF Done:  E(RB3LYP) =  -675.457586941     A.U. after    9 cycles
 SCF Done:  E(RB3LYP) =  -675.457587044     A.U. after    7 cycles
 SCF Done:  E(RB3LYP) =  -675.457587096     A.U. after    7 cycles
 Optimization completed.
    -- Stationary point found.
 Normal termination of Gaussian 09 at Sun Oct  3 20:23:12 2021.

 ----------------------------------------------------------------------
 #p freq b3lyp/6-31G* volume NMR pop=NPA density=current Geom=AllCheck
 Guess=Read
 ----------------------------------------------------------------------

 CCOC(=O)c1ccc(cc1)B(O)O_conf_0
 ------------------------------
 Redundant internal coordinates taken from checkpoint file:
 C9H11BO4_d74c_conf_0.chk
 Charge =  0 Multiplicity = 1

 SCF Done:  E(RB3LYP) =  -675.457587096     A.U. after    1 cycles

  1  C    Isotropic =   174.1624   Anisotropy =    22.1608

  2  C    Isotropic =   130.2186   Anisotropy =    60.4480

  3  O    Isotropic =   142.4917   Anisotropy =   149.0715

  4  C    Isotropic =    32.2830   Anisotropy =    74.2021

  5  O    Isotropic =   -37.3825   Anisotropy =   571.5876

  6  C    Isotropic =    63.5300   Anisotropy =   151.3540

  7  C    Isotropic =    65.5644   Anisotropy =   174.2647

  8  C    Isotropic =    60.6360   Anisotropy =   177.0620

  9  C    Isotropic =    60.8087   Anisotropy =   199.2963

 10  C    Isotropic =    60.8514   Anisotropy =   176.4005

 11  C    Isotropic =    67.6700   Anisotropy =   168.9628

 12  B    Isotropic =    85.6428   Anisotropy =    16.8918

 13  O    Isotropic =   225.7221   Anisotropy =    58.9100

 14  O    Isotropic =   225.8696   Anisotropy =    58.6588

 15  H    Isotropic =    31.3209   Anisotropy =     9.5983

 16  H    Isotropic =    30.9788   Anisotropy =     7.4151

 17  H    Isotropic =    30.4660   Anisotropy =     6.0674

 18  H    Isotropic =    28.4448   Anisotropy =     6.8486

 19  H    Isotropic =    27.2135   Anisotropy =     5.3874

 20  H    Isotropic =    24.0547   Anisotropy =     7.8345

 21  H    Isotropic =    24.1313   Anisotropy =     8.6636

 22  H    Isotropic =    24.1905   Anisotropy =     8.9146

 23  H    Isotropic =    24.2673   Anisotropy =     8.8751

 24  H    Isotropic =    29.3160   Anisotropy =    13.0946

 25  H    Isotropic =    29.3174   Anisotropy =    13.0881

  Exact polarizability: 184.629   0.670 114.921  -4.038   2.581  57.307
 Approx polarizability: 237.291   7.040 205.296  -8.484   6.064  83.698

                     1                      2                      3
                     A                      A                      A
 Frequencies --    34.5665                46.9085                57.1280
 Red. masses --     5.2719                 3.8646                 4.3192
 Frc consts  --     0.0037                 0.0050                 0.0083
 IR Inten    --     1.2350                 1.4538                 0.1238

                     4                      5                      6
                     A                      A                      A
 Frequencies --    84.7080               100.0243               112.1080
 Red. masses --     6.5236                 4.7603                 3.7655
 Frc consts  --     0.0276                 0.0281                 0.0279
 IR Inten    --     0.8018                 0.5049                 1.8168

                     7                      8                      9
                     A                      A                      A
 Frequencies --   179.5856               224.0924               238.0722
 Red. masses --     3.0986                 3.3879                 1.7339
 Frc consts  --     0.0589                 0.1002                 0.0579
 IR Inten    --     0.2918                 6.7363                 5.7424

                    10                     11                     12
                     A                      A                      A
 Frequencies --   259.3060               342.8568               379.6334
 Red. masses --     4.3527                 3.0064                 4.8913
 Frc consts  --     0.1724                 0.2082                 0.4153
 IR Inten    --     1.3046                18.6429                 9.2697

                    13                     14                     15
                     A                      A                      A
 Frequencies --   394.2653               420.9178               428.9944
 Red. masses --     1.2626                 2.0075                 6.0817
 Frc consts  --     0.1156                 0.2096                 0.6594
 IR Inten    --     0.0059                 0.0138                12.2523

                    16                     17                     18
                     A                      A                      A
 Frequencies --   441.4178               465.7664               503.9236
 Red. masses --     3.2807                 3.3845                 4.7060
 Frc consts  --     0.3766                 0.4326                 0.7041
 IR Inten    --    28.1855                17.5871                 9.7760

                    19                     20                     21
                     A                      A                      A
 Frequencies --   548.9640               592.1221               643.8227
 Red. masses --     1.4025                 3.7716                 5.5128
 Frc consts  --     0.2490                 0.7791                 1.3463
 IR Inten    --   166.5207                26.9429                74.0510

                    22                     23                     24
                     A                      A                      A
 Frequencies --   649.2131               718.2434               744.1440
 Red. masses --     7.0799                 3.9121                 4.1080
 Frc consts  --     1.7581                 1.1891                 1.3403
 IR Inten    --     0.5510                34.4355                10.9127

                    25                     26                     27
                     A                      A                      A
 Frequencies --   783.7047               795.4757               861.6673
 Red. masses --     4.4482                 1.5942                 2.6944
 Frc consts  --     1.6097                 0.5944                 1.1787
 IR Inten    --     8.0012                 4.2948                 4.3740

                    28                     29                     30
                     A                      A                      A
 Frequencies --   875.4513               885.8797               891.2472
 Red. masses --     1.4733                 1.4357                 2.7293
 Frc consts  --     0.6653                 0.6638                 1.2773
 IR Inten    --     7.3287                 7.6189                 2.8025

                    31                     32                     33
                     A                      A                      A
 Frequencies --   944.8107               994.6324              1006.9908
 Red. masses --     1.1021                 1.3467                 1.3108
 Frc consts  --     0.5796                 0.7850                 0.7832
 IR Inten    --   184.7136                 0.0282                 0.0086

                    34                     35                     36
                     A                      A                      A
 Frequencies --  1012.0161              1033.6443              1047.7875
 Red. masses --     3.1439                 3.7298                 2.6685
 Frc consts  --     1.8971                 2.3479                 1.7261
 IR Inten    --   236.0538                15.0040                 1.5975

                    37                     38                     39
                     A                      A                      A
 Frequencies --  1121.2355              1132.5431              1135.8571
 Red. masses --     2.6584                 2.1969                 1.5834
 Frc consts  --     1.9691                 1.6603                 1.2037
 IR Inten    --    56.3982                93.3946                18.9490

                    40                     41                     42
                     A                      A                      A
 Frequencies --  1146.0177              1211.0976              1216.2862
 Red. masses --     2.1972                 1.8213                 1.1688
 Frc consts  --     1.7002                 1.5739                 1.0188
 IR Inten    --    85.2490                32.2984                38.7500

                    43                     44                     45
                     A                      A                      A
 Frequencies --  1300.1564              1333.2827              1343.0263
 Red. masses --     4.1657                 2.3743                 1.1599
 Frc consts  --     4.1488                 2.4867                 1.2326
 IR Inten    --   618.8315                22.6949                15.5463

                    46                     47                     48
                     A                      A                      A
 Frequencies --  1352.2113              1390.3987              1403.5207
 Red. masses --     2.0809                 3.4702                 6.2355
 Frc consts  --     2.2417                 3.9526                 7.2370
 IR Inten    --    27.8296               251.3855               159.5635

                    49                     50                     51
                     A                      A                      A
 Frequencies --  1419.6820              1442.0143              1447.7598
 Red. masses --     1.2905                 1.3711                 3.1174
 Frc consts  --     1.5324                 1.6798                 3.8498
 IR Inten    --     7.4381                16.8639               137.4415

                    52                     53                     54
                     A                      A                      A
 Frequencies --  1515.0509              1518.1257              1537.2123
 Red. masses --     1.0524                 1.0798                 1.0576
 Frc consts  --     1.4233                 1.4663                 1.4725
 IR Inten    --    11.2052                 5.9051                 5.8048

                    55                     56                     57
                     A                      A                      A
 Frequencies --  1555.7829              1612.1275              1669.7484
 Red. masses --     2.4671                 6.6977                 5.6661
 Frc consts  --     3.5183                10.2560                 9.3076
 IR Inten    --    32.6711                15.8768                 1.3275

                    58                     59                     60
                     A                      A                      A
 Frequencies --  1792.8437              3059.8502              3091.5631
 Red. masses --    11.5803                 1.0363                 1.0590
 Frc consts  --    21.9308                 5.7164                 5.9636
 IR Inten    --   216.4784                19.5826                31.7423

                    61                     62                     63
                     A                      A                      A
 Frequencies --  3125.3557              3137.6726              3156.9874
 Red. masses --     1.1021                 1.1037                 1.1074
 Frc consts  --     6.3428                 6.4018                 6.5027
 IR Inten    --    26.8166                 9.3631                27.2608

                    64                     65                     66
                     A                      A                      A
 Frequencies --  3202.6371              3203.1771              3225.4284
 Red. masses --     1.0888                 1.0885                 1.0931
 Frc consts  --     6.5801                 6.5802                 6.6999
 IR Inten    --     6.8634                 5.4335                 5.3250

                    67                     68                     69
                     A                      A                      A
 Frequencies --  3231.9774              3782.6952              3786.8810
 Red. masses --     1.0927                 1.0671                 1.0650
 Frc consts  --     6.7250                 8.9960                 8.9986
 IR Inten    --     4.5661                 6.9486                50.2618

 - Thermochemistry -
 -------------------
 Temperature   298.150 Kelvin.  Pressure   1.00000 Atm.
 Atom     1 has atomic number  6 and mass  12.00000

 Molecular mass:   194.07504 amu.
 Principal axes and moments of inertia in atomic units:
                           1         2         3
     Eigenvalues --   814.324606687.690087321.44841
           X            0.99997  -0.00694   0.00458
           Y            0.00694   0.99998   0.00074
           Z           -0.00459  -0.00071   0.99999
 This molecule is an asymmetric top.
 Rotational symmetry number  1.
 Warning -- assumption of classical behavior for rotation
           may cause significant error
 Rotational temperatures (Kelvin)      0.10636     0.01295     0.01183
 Rotational constants (GHZ):           2.21624     0.26986     0.24650
 Zero-point vibrational energy     516453.6 (Joules/Mol)
                                  123.43537 (Kcal/Mol)
 Warning -- explicit consideration of  20 degrees of freedom as
           vibrations may cause significant error
 Vibrational temperatures:     49.73    67.49    82.19   121.88   143.91
          (Kelvin)            161.30   258.38   322.42   342.53   373.08
                              493.29   546.21   567.26   605.61   617.23
                              635.10   670.13   725.03   789.84   851.93
                              926.32   934.07  1033.39  1070.66  1127.57
                             1144.51  1239.75  1259.58  1274.58  1282.30
                             1359.37  1431.05  1448.83  1456.06  1487.18
                             1507.53  1613.21  1629.47  1634.24  1648.86
                             1742.50  1749.96  1870.63  1918.29  1932.31
                             1945.53  2000.47  2019.35  2042.60  2074.73
                             2083.00  2179.82  2184.24  2211.70  2238.42
                             2319.49  2402.39  2579.50  4402.44  4448.06
                             4496.68  4514.41  4542.20  4607.87  4608.65
                             4640.67  4650.09  5442.45  5448.47

 Zero-point correction=                           0.196707 (Hartree/Particle)
 Thermal correction to Energy=                    0.210362
 Thermal correction to Enthalpy=                  0.211306
 Thermal correction to Gibbs Free Energy=         0.154943
 Sum of electronic and zero-point Energies=           -675.260880
 Sum of electronic and thermal Energies=              -675.247225
 Sum of electronic and thermal Enthalpies=            -675.246281
 Sum of electronic and thermal Free Energies=         -675.302644

                     E (Thermal)             CV                S
                      KCal/Mol        Cal/Mol-Kelvin    Cal/Mol-Kelvin
 Total                  132.004             50.415            118.626
 Electronic               0.000              0.000              0.000
 Translational            0.889              2.981             41.695
 Rotational               0.889              2.981             32.056
 Vibrational            130.227             44.453             44.876
 Vibration     1          0.594              1.983              5.548
 Vibration     2          0.595              1.979              4.944
 Vibration     3          0.596              1.975              4.554
 Vibration     4          0.601              1.960              3.779
 Vibration     5          0.604              1.949              3.454
 Vibration     6          0.607              1.939              3.232
 Vibration     7          0.629              1.867              2.333
 Vibration     8          0.649              1.804              1.926
 Vibration     9          0.656              1.782              1.817
 Vibration    10          0.668              1.747              1.666
 Vibration    11          0.722              1.590              1.199
 Vibration    12          0.750              1.514              1.041
 Vibration    13          0.761              1.482              0.984
 Vibration    14          0.783              1.425              0.889
 Vibration    15          0.790              1.407              0.862
 Vibration    16          0.801              1.380              0.822
 Vibration    17          0.823              1.326              0.750
 Vibration    18          0.859              1.241              0.648
 Vibration    19          0.904              1.142              0.546
 Vibration    20          0.950              1.049              0.463

 Optimization completed.
    -- Stationary point found.
 Normal termination of Gaussian 09 at Sun Oct  3 21:27:37 2021.
 Gaussian 09:  AM64L-G09RevA.02 11-Jun-2009

 ----------------------------------------------------------------------
 #p TD(NStates=10, Root=1) b3lyp/6-31G* volume pop=NPA density=current
 Geom=AllCheck Guess=Read
 ----------------------------------------------------------------------

 CCOC(=O)c1ccc(cc1)B(O)O_conf_0
 ------------------------------
 Redundant internal coordinates taken from checkpoint file:
 C9H11BO4_d74c_conf_0.chk
 Charge =  0 Multiplicity = 1

                         Standard orientation:
 ---------------------------------------------------------------------
 Center     Atomic      Atomic             Coordinates (Angstroms)
 Number     Number       Type             X           Y           Z
 ---------------------------------------------------------------------
      1          6           0        4.812557   -0.506267    0.962564
      2          6           0        4.179588   -0.575397   -0.419382
      3          8           0        2.739618   -0.679626   -0.336718
      4          6           0        2.054639    0.482853   -0.219286
      5          8           0        2.588667    1.575618   -0.186480
      6          6           0        0.580876    0.267176   -0.141441
      7          6           0       -0.241876    1.396463   -0.029297
      8          6           0       -1.622806    1.247144    0.045449
      9          6           0       -2.220409   -0.025945    0.011525
     10          6           0       -1.379455   -1.147503   -0.100225
     11          6           0        0.003920   -1.010243   -0.176366
     12          5           0       -3.775154   -0.189783    0.094872
     13          8           0       -4.537937    0.947674    0.203349
     14          8           0       -4.292533   -1.462104    0.054617
     15          1           0        5.904995   -0.506790    0.871336
     16          1           0        4.517485   -1.368209    1.570046
     17          1           0        4.511266    0.410149    1.477373
     18          1           0        4.484486   -1.478311   -0.954651
     19          1           0        4.434888    0.304213   -1.015262
     20          1           0        0.221879    2.377208   -0.003434
     21          1           0       -2.254508    2.126630    0.131544
     22          1           0       -1.821307   -2.139505   -0.127942
     23          1           0        0.641306   -1.883197   -0.262278
     24          1           0       -5.492220    0.795855    0.250820
     25          1           0       -5.257232   -1.511305    0.108706
 ---------------------------------------------------------------------

 SCF Done:  E(RB3LYP) =  -675.457587096     A.U. after    1 cycles

 Excitation energies and oscillator strengths:

 Excited State   1:      Singlet-A      4.6839 eV  264.70 nm  f=0.0009  <S**2>=0.000
      49 -> 52         0.67414
      49 -> 55         0.14338
      51 -> 52        -0.12918
 This state for optimization and/or second-order correction.
 Total Energy, E(TD-HF/TD-KS) =  -675.285456824
 Copying the excited state density for this state as the 1-particle RhoCI density.

 Excited State   2:      Singlet-A      4.7086 eV  263.32 nm  f=0.0226  <S**2>=0.000
      49 -> 52         0.14162
      50 -> 52        -0.11197
      50 -> 53         0.25481
      51 -> 52         0.63209

 Excited State   3:      Singlet-A      5.2019 eV  238.35 nm  f=0.4723  <S**2>=0.000
      50 -> 52         0.67210
      51 -> 52         0.12748
      51 -> 53        -0.15679

 Excited State   4:      Singlet-A      6.0732 eV  204.15 nm  f=0.0145  <S**2>=0.000
      48 -> 52         0.68802

 Excited State   5:      Singlet-A      6.4601 eV  191.92 nm  f=0.0006  <S**2>=0.000
      44 -> 52        -0.16286
      45 -> 52        -0.37073
      46 -> 52         0.54148
      49 -> 53        -0.16371

 Excited State   6:      Singlet-A      6.4849 eV  191.19 nm  f=0.0015  <S**2>=0.000
      44 -> 52         0.12482
      45 -> 52         0.54427
      46 -> 52         0.41272

 Excited State   7:      Singlet-A      6.5209 eV  190.13 nm  f=0.0012  <S**2>=0.000
      46 -> 52         0.13974
      49 -> 53         0.68186

 Excited State   8:      Singlet-A      6.6074 eV  187.64 nm  f=0.1451  <S**2>=0.000
      48 -> 52         0.10475
      50 -> 53         0.57058
      51 -> 52        -0.22585
      51 -> 53         0.10393
      51 -> 55        -0.26794

 Excited State   9:      Singlet-A      6.8603 eV  180.73 nm  f=0.6071  <S**2>=0.000
      50 -> 52         0.14075
      50 -> 53        -0.11094
      50 -> 55         0.15075
      51 -> 53         0.64423

 Excited State  10:      Singlet-A      6.9378 eV  178.71 nm  f=0.0057  <S**2>=0.000
      41 -> 52         0.11680
      44 -> 52         0.64393
      45 -> 52        -0.19865

 The electronic state is 1-A.
 Alpha  occ. eigenvalues --  -19.18322 -19.16912 -19.16897 -19.12643 -10.30818
 Alpha  occ. eigenvalues --  -10.23863 -10.19855 -10.18932 -10.18704 -10.18647
 Alpha  occ. eigenvalues --  -10.18580 -10.17878 -10.17274  -6.79125  -1.09136
 Alpha  occ. eigenvalues --   -1.04473  -1.01098  -1.00386  -0.85069  -0.77509
 Alpha  occ. eigenvalues --   -0.74507  -0.74013  -0.66191  -0.61693  -0.60061
 Alpha  occ. eigenvalues --   -0.56886  -0.54975  -0.54715  -0.52441  -0.47322
 Alpha  occ. eigenvalues --   -0.46562  -0.45358  -0.44369  -0.43486  -0.43046
 Alpha  occ. eigenvalues --   -0.41529  -0.40882  -0.40034  -0.39448  -0.38286
 Alpha  occ. eigenvalues --   -0.36659  -0.34975  -0.34887  -0.33762  -0.32950
 Alpha  occ. eigenvalues --   -0.32815  -0.32674  -0.29210  -0.26614  -0.24970
 Alpha  occ. eigenvalues --   -0.24717
 Alpha virt. eigenvalues --   -0.04889   0.00480   0.03505   0.03970   0.09826
 Alpha virt. eigenvalues --    0.10993   0.11475   0.12044   0.13845   0.15004
 Alpha virt. eigenvalues --    0.15992   0.16063   0.17683   0.18985   0.19314

 Mulliken atomic charges:
              1
     1  C   -0.461540
     2  C   -0.070492
     3  O   -0.435711
     4  C    0.582911
     5  O   -0.300751
     6  C    0.041907
     7  C   -0.175660
     8  C   -0.204075
     9  C    0.065949
    10  C   -0.200709
    11  C   -0.172831
    12  B    0.326182
    13  O   -0.566503
    14  O   -0.567133
    15  H    0.161866
    16  H    0.175625
    17  H    0.174102
    18  H    0.176256
    19  H    0.174020
    20  H    0.119788
    21  H    0.132669
    22  H    0.134608
    23  H    0.124962
    24  H    0.382273
    25  H    0.382288
 Sum of Mulliken atomic charges =  -0.00000

 Dipole moment (field-independent basis, Debye):
    X=              2.7854    Y=             -0.8629    Z=              0.0208  Tot=              2.9160
 Quadrupole moment (field-independent basis, Debye-Ang):
   XX=            -37.0073   YY=            -81.5453   ZZ=            -82.3217
   XY=             -1.0126   XZ=             -1.9817   YZ=              0.0684

 Summary of Natural Population Analysis:

                                       Natural Population
                Natural  -----------------------------------------------
    Atom  No    Charge         Core      Valence    Rydberg      Total
 -----------------------------------------------------------------------
      C    1   -0.71117      1.99945     4.70420    0.00752     6.71117
      C    2   -0.11677      1.99927     4.09998    0.01752     6.11677
      O    3   -0.48566      1.99976     6.47505    0.01085     8.48566
      C    4    0.70309      1.99930     3.25898    0.03863     5.29691
      O    5   -0.26281      1.99981     6.24462    0.01839     8.26281
      C    6   -0.21532      1.99888     4.20018    0.01626     6.21532
      C    7   -0.23936      1.99906     4.22654    0.01377     6.23936
      C    8   -0.19137      1.99911     4.17803    0.01423     6.19137
      C    9   -0.45652      1.99894     4.43943    0.01815     6.45652
      C   10   -0.19065      1.99910     4.17736    0.01420     6.19065
      C   11   -0.23793      1.99903     4.22471    0.01418     6.23793
      B   12    1.10173      1.99922     1.87290    0.02615     3.89827
      O   13   -0.89582      1.99975     6.88643    0.00964     8.89582
      O   14   -0.89624      1.99975     6.88686    0.00964     8.89624
      H   15    0.24503      0.00000     0.75407    0.00090     0.75497
      H   16    0.24464      0.00000     0.75419    0.00117     0.75536
      H   17    0.24124      0.00000     0.75755    0.00121     0.75876
      H   18    0.23978      0.00000     0.75915    0.00107     0.76022
      H   19    0.22403      0.00000     0.77419    0.00179     0.77597
      H   20    0.22778      0.00000     0.77166    0.00056     0.77222
      H   21    0.24033      0.00000     0.75846    0.00121     0.75967
      H   22    0.24178      0.00000     0.75703    0.00119     0.75822
      H   23    0.23798      0.00000     0.76108    0.00094     0.76202
      H   24    0.47609      0.00000     0.52161    0.00230     0.52391
      H   25    0.47612      0.00000     0.52158    0.00230     0.52388
 =======================================================================
   * Total *   -0.00000     27.99043    73.76583    0.24374   102.00000

 Normal termination of Gaussian 09 at Mon Oct  4 03:11:50 2021.
