 Gaussian 09, Revision A.02,

 -----------------------------------
 #p opt b3lyp/6-31G* scf=(xqc,tight)
 -----------------------------------

 -----------------------
 COc1cc(C)cc(c1)C_conf_0
 -----------------------
 Symbolic Z-matrix:
 Charge =  0 Multiplicity = 1

 SCF Done:  E(RB3LYP) =  -425.405849115     A.U. after   14 cycles
 SCF Done:  E(RB3LYP) =  -425.407184166     A.U. after   12 cycles
 SCF Done:  E(RB3LYP) =  -425.407280793     A.U. after   11 cycles
 SCF Done:  E(RB3LYP) =  -425.407313677     A.U. after   10 cycles
 SCF Done:  E(RB3LYP) =  -425.407331228     A.U. after   10 cycles
 SCF Done:  E(RB3LYP) =  -425.407338554     A.U. after   15 cycles
 SCF Done:  E(RB3LYP) =  -425.407339343     A.U. after    8 cycles
 SCF Done:  E(RB3LYP) =  -425.407339659     A.U. after    7 cycles
 SCF Done:  E(RB3LYP) =  -425.407340170     A.U. after    7 cycles
 SCF Done:  E(RB3LYP) =  -425.407341182     A.U. after    9 cycles
 SCF Done:  E(RB3LYP) =  -425.407343308     A.U. after   15 cycles
 SCF Done:  E(RB3LYP) =  -425.407344920     A.U. after   10 cycles
 SCF Done:  E(RB3LYP) =  -425.407345198     A.U. after    9 cycles
 SCF Done:  E(RB3LYP) =  -425.407345231     A.U. after    6 cycles
 SCF Done:  E(RB3LYP) =  -425.407345249     A.U. after    6 cycles
 Optimization completed on the basis of negligible forces.
    -- Stationary point found.
 Normal termination of Gaussian 09 at Tue Sep 28 16:13:07 2021.

 ----------------------------------------------------------------------
 #p freq b3lyp/6-31G* volume NMR pop=NPA density=current Geom=AllCheck
 Guess=Read
 ----------------------------------------------------------------------

 COc1cc(C)cc(c1)C_conf_0
 -----------------------
 Redundant internal coordinates taken from checkpoint file:
 C9H12O_83e4_conf_0.chk
 Charge =  0 Multiplicity = 1

 SCF Done:  E(RB3LYP) =  -425.407345249     A.U. after    1 cycles

  1  C    Isotropic =   137.5616   Anisotropy =    64.5569

  2  O    Isotropic =   239.4118   Anisotropy =    74.6473

  3  C    Isotropic =    38.9293   Anisotropy =   123.0293

  4  C    Isotropic =    79.3252   Anisotropy =   114.2942

  5  C    Isotropic =    57.7650   Anisotropy =   173.8664

  6  C    Isotropic =   167.5878   Anisotropy =    35.2432

  7  C    Isotropic =    73.9836   Anisotropy =   122.5642

  8  C    Isotropic =    57.7806   Anisotropy =   173.6038

  9  C    Isotropic =    88.7426   Anisotropy =   129.5250

 10  C    Isotropic =   167.2986   Anisotropy =    35.7491

 11  H    Isotropic =    28.3598   Anisotropy =     8.0572

 12  H    Isotropic =    28.6699   Anisotropy =     7.9192

 13  H    Isotropic =    28.6685   Anisotropy =     7.9204

 14  H    Isotropic =    25.9008   Anisotropy =     7.1315

 15  H    Isotropic =    30.5134   Anisotropy =     7.0461

 16  H    Isotropic =    29.8601   Anisotropy =     7.9617

 17  H    Isotropic =    29.8810   Anisotropy =     7.8855

 18  H    Isotropic =    25.7655   Anisotropy =     7.9136

 19  H    Isotropic =    26.1547   Anisotropy =     9.0338

 20  H    Isotropic =    30.4411   Anisotropy =     7.1715

 21  H    Isotropic =    29.8089   Anisotropy =     7.8453

 22  H    Isotropic =    29.8264   Anisotropy =     7.7803

  Exact polarizability: 125.657  -2.130 111.817   0.022   0.006  52.151
 Approx polarizability: 182.501   1.372 171.122   0.009   0.007  76.156

                     1                      2                      3
                     A                      A                      A
 Frequencies --    30.1224                32.6330                85.1961
 Red. masses --     1.0295                 1.0329                 3.0373
 Frc consts  --     0.0006                 0.0006                 0.0130
 IR Inten    --     0.1560                 0.2281                 4.8895

                     4                      5                      6
                     A                      A                      A
 Frequencies --   183.8561               207.9627               210.6313
 Red. masses --     2.7477                 1.8920                 2.9769
 Frc consts  --     0.0547                 0.0482                 0.0778
 IR Inten    --     0.4915                 0.7079                 1.5028

                     7                      8                      9
                     A                      A                      A
 Frequencies --   241.6912               268.7302               278.8419
 Red. masses --     2.9516                 2.5675                 1.6271
 Frc consts  --     0.1016                 0.1092                 0.0745
 IR Inten    --     0.5148                 0.6462                 0.6556

                    10                     11                     12
                     A                      A                      A
 Frequencies --   375.7283               485.3977               513.9911
 Red. masses --     3.1051                 3.8748                 5.1449
 Frc consts  --     0.2583                 0.5379                 0.8008
 IR Inten    --     1.7423                 0.6872                 1.7144

                    13                     14                     15
                     A                      A                      A
 Frequencies --   531.0074               547.0884               592.1895
 Red. masses --     3.1459                 4.3772                 3.9621
 Frc consts  --     0.5226                 0.7719                 0.8186
 IR Inten    --     0.0040                 0.0555                 1.6095

                    16                     17                     18
                     A                      A                      A
 Frequencies --   606.4636               702.7057               846.7804
 Red. masses --     4.2287                 2.4393                 1.3950
 Frc consts  --     0.9164                 0.7097                 0.5893
 IR Inten    --     9.7837                 2.2548                27.0301

                    19                     20                     21
                     A                      A                      A
 Frequencies --   860.1786               883.5563               944.9739
 Red. masses --     1.2728                 1.4129                 3.3904
 Frc consts  --     0.5549                 0.6499                 1.7838
 IR Inten    --     7.2042                 5.2623                11.2052

                    22                     23                     24
                     A                      A                      A
 Frequencies --   972.7144              1010.0747              1032.2628
 Red. masses --     3.5479                 5.1797                 1.7914
 Frc consts  --     1.9778                 3.1136                 1.1247
 IR Inten    --     2.3175                 0.7317                 0.9834

                    25                     26                     27
                     A                      A                      A
 Frequencies --  1047.2262              1072.4777              1074.5124
 Red. masses --     1.5312                 1.5115                 1.4981
 Frc consts  --     0.9894                 1.0243                 1.0191
 IR Inten    --     0.6639                 8.1121                 0.0611

                    28                     29                     30
                     A                      A                      A
 Frequencies --  1112.1037              1185.9377              1191.5535
 Red. masses --     2.5060                 1.2711                 1.5941
 Frc consts  --     1.8261                 1.0533                 1.3335
 IR Inten    --    55.0007                 0.7220                35.0017

                    31                     32                     33
                     A                      A                      A
 Frequencies --  1206.1175              1232.1376              1313.0564
 Red. masses --     1.5375                 1.6520                 2.0767
 Frc consts  --     1.3178                 1.4777                 2.1095
 IR Inten    --    46.0344                53.5691                17.4678

                    34                     35                     36
                     A                      A                      A
 Frequencies --  1335.5253              1386.0559              1439.6292
 Red. masses --     2.3243                 5.3745                 1.2339
 Frc consts  --     2.4425                 6.0834                 1.5067
 IR Inten    --    71.4029                65.4915                 0.0592

                    37                     38                     39
                     A                      A                      A
 Frequencies --  1441.9721              1477.1874              1498.7235
 Red. masses --     1.2702                 1.9713                 2.0660
 Frc consts  --     1.5561                 2.5344                 2.7341
 IR Inten    --     1.1161                25.5340                 2.9471

                    40                     41                     42
                     A                      A                      A
 Frequencies --  1506.2307              1514.7009              1515.3715
 Red. masses --     1.2529                 1.0453                 1.0446
 Frc consts  --     1.6748                 1.4130                 1.4133
 IR Inten    --     3.1901                10.3586                 0.0518

                    43                     44                     45
                     A                      A                      A
 Frequencies --  1519.8564              1531.8484              1536.2848
 Red. masses --     1.0482                 1.1570                 1.2419
 Frc consts  --     1.4266                 1.5996                 1.7270
 IR Inten    --     5.6026                19.4547                55.4366

                    46                     47                     48
                     A                      A                      A
 Frequencies --  1541.3143              1654.5774              1667.8933
 Red. masses --     1.2858                 5.3464                 5.8933
 Frc consts  --     1.7997                 8.6236                 9.6593
 IR Inten    --     9.2634               109.9256                65.0221

                    49                     50                     51
                     A                      A                      A
 Frequencies --  3022.0597              3040.9628              3042.9777
 Red. masses --     1.0349                 1.0377                 1.0376
 Frc consts  --     5.5686                 5.6540                 5.6609
 IR Inten    --    53.3617                39.0870                27.6489

                    52                     53                     54
                     A                      A                      A
 Frequencies --  3079.2462              3091.2523              3094.1111
 Red. masses --     1.1065                 1.1008                 1.1008
 Frc consts  --     6.1813                 6.1976                 6.2090
 IR Inten    --    45.2090                22.3046                23.3221

                    55                     56                     57
                     A                      A                      A
 Frequencies --  3125.1665              3127.0369              3153.3432
 Red. masses --     1.1004                 1.1007                 1.0995
 Frc consts  --     6.3321                 6.3414                 6.4413
 IR Inten    --    17.4421                19.3403                29.3813

                    58                     59                     60
                     A                      A                      A
 Frequencies --  3174.7841              3203.3586              3212.2422
 Red. masses --     1.0898                 1.0906                 1.0892
 Frc consts  --     6.4716                 6.5935                 6.6219
 IR Inten    --    19.1759                 7.2817                10.8785

 - Thermochemistry -
 -------------------
 Temperature   298.150 Kelvin.  Pressure   1.00000 Atm.
 Atom     1 has atomic number  6 and mass  12.00000

 Molecular mass:   136.08882 amu.
 Principal axes and moments of inertia in atomic units:
                           1         2         3
     Eigenvalues --  1042.511231658.279052666.88561
           X            0.99893  -0.04619   0.00003
           Y            0.04619   0.99893   0.00001
           Z           -0.00003  -0.00000   1.00000
 This molecule is an asymmetric top.
 Rotational symmetry number  1.
 Warning -- assumption of classical behavior for rotation
           may cause significant error
 Rotational temperatures (Kelvin)      0.08308     0.05223     0.03248
 Rotational constants (GHZ):           1.73115     1.08832     0.67672
 Zero-point vibrational energy     495335.4 (Joules/Mol)
                                  118.38800 (Kcal/Mol)
 Warning -- explicit consideration of  16 degrees of freedom as
           vibrations may cause significant error
 Vibrational temperatures:     43.34    46.95   122.58   264.53   299.21
          (Kelvin)            303.05   347.74   386.64   401.19   540.59
                              698.38   739.52   764.00   787.14   852.03
                              872.56  1011.04  1218.33  1237.60  1271.24
                             1359.60  1399.52  1453.27  1485.19  1506.72
                             1543.05  1545.98  1600.07  1706.30  1714.38
                             1735.33  1772.77  1889.19  1921.52  1994.22
                             2071.30  2074.67  2125.34  2156.33  2167.13
                             2179.31  2180.28  2186.73  2203.99  2210.37
                             2217.60  2380.56  2399.72  4348.06  4375.26
                             4378.16  4430.34  4447.62  4451.73  4496.41
                             4499.10  4536.95  4567.80  4608.91  4621.69

 Zero-point correction=                           0.188663 (Hartree/Particle)
 Thermal correction to Energy=                    0.199306
 Thermal correction to Enthalpy=                  0.200250
 Thermal correction to Gibbs Free Energy=         0.151137
 Sum of electronic and zero-point Energies=           -425.218682
 Sum of electronic and thermal Energies=              -425.208039
 Sum of electronic and thermal Enthalpies=            -425.207095
 Sum of electronic and thermal Free Energies=         -425.256208

                     E (Thermal)             CV                S
                      KCal/Mol        Cal/Mol-Kelvin    Cal/Mol-Kelvin
 Total                  125.066             38.388            103.367
 Electronic               0.000              0.000              0.000
 Translational            0.889              2.981             40.637
 Rotational               0.889              2.981             29.912
 Vibrational            123.289             32.427             32.818
 Vibration     1          0.594              1.984              5.821
 Vibration     2          0.594              1.983              5.663
 Vibration     3          0.601              1.959              3.767
 Vibration     4          0.631              1.862              2.289
 Vibration     5          0.641              1.828              2.061
 Vibration     6          0.643              1.825              2.038
 Vibration     7          0.658              1.776              1.790
 Vibration     8          0.673              1.731              1.604
 Vibration     9          0.679              1.713              1.541
 Vibration    10          0.747              1.522              1.056
 Vibration    11          0.841              1.282              0.696
 Vibration    12          0.869              1.219              0.624
 Vibration    13          0.886              1.181              0.585
 Vibration    14          0.902              1.146              0.550
 Vibration    15          0.950              1.048              0.463
 Vibration    16          0.965              1.018              0.439

 Optimization completed on the basis of negligible forces.
    -- Stationary point found.
 Normal termination of Gaussian 09 at Tue Sep 28 16:37:31 2021.
 Gaussian 09:  AM64L-G09RevA.02 11-Jun-2009

 ----------------------------------------------------------------------
 #p TD(NStates=10, Root=1) b3lyp/6-31G* volume pop=NPA density=current
 Geom=AllCheck Guess=Read
 ----------------------------------------------------------------------

 COc1cc(C)cc(c1)C_conf_0
 -----------------------
 Redundant internal coordinates taken from checkpoint file:
 C9H12O_83e4_conf_0.chk
 Charge =  0 Multiplicity = 1

                         Standard orientation:
 ---------------------------------------------------------------------
 Center     Atomic      Atomic             Coordinates (Angstroms)
 Number     Number       Type             X           Y           Z
 ---------------------------------------------------------------------
      1          6           0       -3.295296   -0.220615    0.000256
      2          8           0       -2.156534   -1.063891    0.000130
      3          6           0       -0.919263   -0.480461    0.000070
      4          6           0        0.164416   -1.373370   -0.000487
      5          6           0        1.471347   -0.898191   -0.001071
      6          6           0        2.643616   -1.852689    0.001210
      7          6           0        1.688941    0.491276   -0.001678
      8          6           0        0.624086    1.389347   -0.000820
      9          6           0       -0.692494    0.895877   -0.000130
     10          6           0        0.863109    2.882309    0.000938
     11          1           0       -4.161339   -0.885515    0.000484
     12          1           0       -3.328339    0.416400   -0.894026
     13          1           0       -3.328003    0.416589    0.894414
     14          1           0       -0.046564   -2.438863   -0.000930
     15          1           0        2.312184   -2.895187   -0.029469
     16          1           0        3.260306   -1.723791    0.899664
     17          1           0        3.297651   -1.682637   -0.863038
     18          1           0        2.708496    0.871600   -0.003027
     19          1           0       -1.519931    1.597558   -0.000314
     20          1           0        1.932145    3.115321   -0.023197
     21          1           0        0.438768    3.354745    0.896059
     22          1           0        0.396120    3.364014   -0.867390
 ---------------------------------------------------------------------

 SCF Done:  E(RB3LYP) =  -425.407345249     A.U. after    1 cycles

 Excitation energies and oscillator strengths:

 Excited State   1:      Singlet-A      5.1016 eV  243.03 nm  f=0.0242  <S**2>=0.000
      36 -> 39        -0.35565
      37 -> 38         0.60913
 This state for optimization and/or second-order correction.
 Total Energy, E(TD-HF/TD-KS) =  -425.219864592
 Copying the excited state density for this state as the 1-particle RhoCI density.

 Excited State   2:      Singlet-A      5.8538 eV  211.80 nm  f=0.0284  <S**2>=0.000
      36 -> 38         0.40758
      37 -> 39         0.57283

 Excited State   3:      Singlet-A      6.6587 eV  186.20 nm  f=0.5774  <S**2>=0.000
      35 -> 38        -0.12957
      36 -> 38         0.49922
      36 -> 39        -0.27816
      37 -> 38        -0.15090
      37 -> 39        -0.34326

 Excited State   4:      Singlet-A      6.6933 eV  185.24 nm  f=0.4504  <S**2>=0.000
      35 -> 38         0.13126
      36 -> 38         0.26749
      36 -> 39         0.51398
      37 -> 38         0.30734
      37 -> 39        -0.20136

 Excited State   5:      Singlet-A      7.3968 eV  167.62 nm  f=0.0028  <S**2>=0.000
      37 -> 40         0.69053

 Excited State   6:      Singlet-A      7.7045 eV  160.92 nm  f=0.0011  <S**2>=0.000
      33 -> 38         0.10480
      34 -> 38         0.69178

 Excited State   7:      Singlet-A      7.7427 eV  160.13 nm  f=0.2788  <S**2>=0.000
      35 -> 38         0.67550
      36 -> 39        -0.15515

 Excited State   8:      Singlet-A      7.8425 eV  158.09 nm  f=0.0073  <S**2>=0.000
      34 -> 39        -0.10636
      36 -> 40        -0.17272
      37 -> 40         0.10767
      37 -> 41         0.63580
      37 -> 43         0.19080

 Excited State   9:      Singlet-A      7.9299 eV  156.35 nm  f=0.0008  <S**2>=0.000
      34 -> 39         0.61975
      36 -> 40         0.25953
      37 -> 41         0.16010

 Excited State  10:      Singlet-A      7.9483 eV  155.99 nm  f=0.0001  <S**2>=0.000
      34 -> 39        -0.28935
      36 -> 40         0.60606
      36 -> 41        -0.12825

 The electronic state is 1-A.
 Alpha  occ. eigenvalues --  -19.17102 -10.23823 -10.23664 -10.19093 -10.18943
 Alpha  occ. eigenvalues --  -10.17950 -10.17762 -10.17476 -10.17143 -10.16946
 Alpha  occ. eigenvalues --   -1.05651  -0.84637  -0.77367  -0.75600  -0.70145
 Alpha  occ. eigenvalues --   -0.68044  -0.66987  -0.57732  -0.56763  -0.51117
 Alpha  occ. eigenvalues --   -0.48335  -0.47464  -0.46280  -0.42623  -0.41705
 Alpha  occ. eigenvalues --   -0.41059  -0.40753  -0.39770  -0.39005  -0.37210
 Alpha  occ. eigenvalues --   -0.35829  -0.34790  -0.34035  -0.31718  -0.29978
 Alpha  occ. eigenvalues --   -0.22961  -0.20925
 Alpha virt. eigenvalues --    0.00914   0.02109   0.09729   0.11300   0.12399
 Alpha virt. eigenvalues --    0.12646   0.14188   0.14447   0.15117   0.16063
 Alpha virt. eigenvalues --    0.17102   0.17420   0.18818   0.18942   0.19366

 Mulliken atomic charges:
              1
     1  C   -0.223151
     2  O   -0.458333
     3  C    0.360948
     4  C   -0.245527
     5  C    0.159480
     6  C   -0.525842
     7  C   -0.214383
     8  C    0.160931
     9  C   -0.254479
    10  C   -0.526217
    11  H    0.175242
    12  H    0.167663
    13  H    0.167662
    14  H    0.120894
    15  H    0.150338
    16  H    0.151099
    17  H    0.150636
    18  H    0.119890
    19  H    0.116164
    20  H    0.149596
    21  H    0.148997
    22  H    0.148392
 Sum of Mulliken atomic charges =  -0.00000

 Dipole moment (field-independent basis, Debye):
    X=             -1.7825    Y=              0.8644    Z=              0.0040  Tot=              1.9811
 Quadrupole moment (field-independent basis, Debye-Ang):
   XX=            -49.4352   YY=            -60.0551   ZZ=            -62.6975
   XY=             -1.3876   XZ=             -0.0022   YZ=              0.0026

 Summary of Natural Population Analysis:

                                       Natural Population
                Natural  -----------------------------------------------
    Atom  No    Charge         Core      Valence    Rydberg      Total
 -----------------------------------------------------------------------
      C    1   -0.32369      1.99942     4.31013    0.01414     6.32369
      O    2   -0.44149      1.99975     6.42998    0.01176     8.44149
      C    3    0.32961      1.99880     3.64787    0.02372     5.67039
      C    4   -0.29786      1.99899     4.28043    0.01845     6.29786
      C    5   -0.07525      1.99908     4.05891    0.01726     6.07525
      C    6   -0.68417      1.99941     4.67721    0.00756     6.68417
      C    7   -0.16308      1.99899     4.14989    0.01420     6.16308
      C    8   -0.05415      1.99908     4.03785    0.01722     6.05415
      C    9   -0.33694      1.99898     4.32141    0.01655     6.33694
      C   10   -0.68601      1.99940     4.67909    0.00752     6.68601
      H   11    0.23039      0.00000     0.76907    0.00054     0.76961
      H   12    0.21417      0.00000     0.78380    0.00203     0.78583
      H   13    0.21417      0.00000     0.78380    0.00203     0.78583
      H   14    0.23337      0.00000     0.76524    0.00139     0.76663
      H   15    0.23421      0.00000     0.76496    0.00083     0.76579
      H   16    0.23244      0.00000     0.76550    0.00206     0.76756
      H   17    0.23254      0.00000     0.76551    0.00196     0.76746
      H   18    0.22339      0.00000     0.77545    0.00116     0.77661
      H   19    0.22430      0.00000     0.77462    0.00108     0.77570
      H   20    0.23383      0.00000     0.76536    0.00081     0.76617
      H   21    0.23020      0.00000     0.76677    0.00303     0.76980
      H   22    0.23002      0.00000     0.76698    0.00300     0.76998
 =======================================================================
   * Total *    0.00000     19.99191    53.83980    0.16829    74.00000

 Normal termination of Gaussian 09 at Tue Sep 28 18:33:42 2021.
