 Gaussian 09, Revision A.02,

 -----------------------------------
 #p opt b3lyp/6-31G* scf=(xqc,tight)
 -----------------------------------

 ----------------------
 CCC(=O)c1ccccc1_conf_0
 ----------------------
 Symbolic Z-matrix:
 Charge =  0 Multiplicity = 1

 SCF Done:  E(RB3LYP) =  -424.208942528     A.U. after   15 cycles
 SCF Done:  E(RB3LYP) =  -424.210219630     A.U. after   12 cycles
 SCF Done:  E(RB3LYP) =  -424.210260945     A.U. after   11 cycles
 SCF Done:  E(RB3LYP) =  -424.210137797     A.U. after   15 cycles
 SCF Done:  E(RB3LYP) =  -424.210315146     A.U. after   15 cycles
 SCF Done:  E(RB3LYP) =  -424.210315576     A.U. after   15 cycles
 SCF Done:  E(RB3LYP) =  -424.210315644     A.U. after    7 cycles
 Optimization completed.
    -- Stationary point found.
 Normal termination of Gaussian 09 at Mon Oct  4 04:44:12 2021.

 ----------------------------------------------------------------------
 #p freq b3lyp/6-31G* volume NMR pop=NPA density=current Geom=AllCheck
 Guess=Read
 ----------------------------------------------------------------------

 CCC(=O)c1ccccc1_conf_0
 ----------------------
 Redundant internal coordinates taken from checkpoint file:
 C9H10O_2b9a_conf_0.chk
 Charge =  0 Multiplicity = 1

 SCF Done:  E(RB3LYP) =  -424.210315644     A.U. after    1 cycles

  1  C    Isotropic =   179.9440   Anisotropy =     8.1513

  2  C    Isotropic =   157.4159   Anisotropy =    29.3825

  3  C    Isotropic =     0.5588   Anisotropy =   156.2462

  4  O    Isotropic =  -248.6335   Anisotropy =   970.4867

  5  C    Isotropic =    60.7229   Anisotropy =   160.0699

  6  C    Isotropic =    68.0007   Anisotropy =   166.7953

  7  C    Isotropic =    68.6857   Anisotropy =   164.0874

  8  C    Isotropic =    64.1356   Anisotropy =   173.0017

  9  C    Isotropic =    67.8421   Anisotropy =   166.0173

 10  C    Isotropic =    66.7748   Anisotropy =   181.2073

 11  H    Isotropic =    31.3906   Anisotropy =     8.8682

 12  H    Isotropic =    30.8623   Anisotropy =     8.4675

 13  H    Isotropic =    30.8590   Anisotropy =     8.4633

 14  H    Isotropic =    29.3311   Anisotropy =     6.2323

 15  H    Isotropic =    29.3322   Anisotropy =     6.2289

 16  H    Isotropic =    24.5326   Anisotropy =     8.1695

 17  H    Isotropic =    24.9354   Anisotropy =     5.0716

 18  H    Isotropic =    24.8269   Anisotropy =     4.7594

 19  H    Isotropic =    24.8161   Anisotropy =     4.8729

 20  H    Isotropic =    23.9354   Anisotropy =     6.8027

  Exact polarizability: 131.585   2.254  99.622  -0.001   0.002  44.593
 Approx polarizability: 186.527  12.357 176.891  -0.004   0.002  67.593

                     1                      2                      3
                     A                      A                      A
 Frequencies --    48.7341                84.0046               151.8962
 Red. masses --     4.4394                 1.8044                 3.1672
 Frc consts  --     0.0062                 0.0075                 0.0431
 IR Inten    --     1.5621                 1.0769                 0.1145

                     4                      5                      6
                     A                      A                      A
 Frequencies --   164.4381               209.5177               300.9750
 Red. masses --     3.5014                 1.2658                 3.9143
 Frc consts  --     0.0558                 0.0327                 0.2089
 IR Inten    --     0.8613                 0.4914                11.0899

                     7                      8                      9
                     A                      A                      A
 Frequencies --   341.6930               414.5918               430.8236
 Red. masses --     5.3097                 2.9674                 3.2446
 Frc consts  --     0.3652                 0.3005                 0.3548
 IR Inten    --     0.1841                 0.0070                 0.0688

                    10                     11                     12
                     A                      A                      A
 Frequencies --   474.9453               582.4870               631.4796
 Red. masses --     6.1845                 2.1931                 6.3574
 Frc consts  --     0.8219                 0.4384                 1.4937
 IR Inten    --     4.6594                 4.4178                 0.0915

                    13                     14                     15
                     A                      A                      A
 Frequencies --   655.0029               706.4360               755.9284
 Red. masses --     4.9113                 1.9838                 4.0493
 Frc consts  --     1.2414                 0.5833                 1.3633
 IR Inten    --    11.1596                22.7324                 0.1976

                    16                     17                     18
                     A                      A                      A
 Frequencies --   765.3663               836.4654               867.1145
 Red. masses --     1.5085                 1.4980                 1.2477
 Frc consts  --     0.5206                 0.6175                 0.5527
 IR Inten    --    40.7156                 0.6143                 0.3393

                    19                     20                     21
                     A                      A                      A
 Frequencies --   948.5389               968.6752               984.2349
 Red. masses --     1.3634                 4.1066                 1.3426
 Frc consts  --     0.7228                 2.2703                 0.7663
 IR Inten    --     0.7079                43.1372                 0.2810

                    22                     23                     24
                     A                      A                      A
 Frequencies --  1009.9175              1018.5293              1027.5469
 Red. masses --     1.2745                 5.6519                 1.7793
 Frc consts  --     0.7659                 3.4545                 1.1069
 IR Inten    --     0.1116                 4.1273                15.9152

                    25                     26                     27
                     A                      A                      A
 Frequencies --  1057.2686              1099.8301              1110.2971
 Red. masses --     2.1350                 1.6901                 2.3570
 Frc consts  --     1.4061                 1.2045                 1.7120
 IR Inten    --     0.3631                 0.1428                 1.5851

                    28                     29                     30
                     A                      A                      A
 Frequencies --  1115.8763              1193.7749              1212.2808
 Red. masses --     1.5555                 1.1071                 1.1571
 Frc consts  --     1.1412                 0.9296                 1.0019
 IR Inten    --     5.4734                 1.9000                25.9590

                    31                     32                     33
                     A                      A                      A
 Frequencies --  1245.5584              1296.8431              1348.8532
 Red. masses --     3.0627                 1.1822                 1.8320
 Frc consts  --     2.7995                 1.1715                 1.9638
 IR Inten    --   154.3792                 0.2313                 1.1475

                    34                     35                     36
                     A                      A                      A
 Frequencies --  1368.0058              1394.5049              1441.6498
 Red. masses --     3.1691                 1.7989                 1.2379
 Frc consts  --     3.4943                 2.0610                 1.5158
 IR Inten    --     2.7413                44.1729                 3.9011

                    37                     38                     39
                     A                      A                      A
 Frequencies --  1491.4842              1495.5976              1522.4835
 Red. masses --     1.1695                 1.9702                 1.0394
 Frc consts  --     1.5328                 2.5965                 1.4196
 IR Inten    --     2.8674                17.3689                 5.4201

                    40                     41                     42
                     A                      A                      A
 Frequencies --  1527.9120              1540.4883              1638.8528
 Red. masses --     1.0520                 2.1479                 5.4090
 Frc consts  --     1.4469                 3.0032                 8.5594
 IR Inten    --     9.6205                 0.4834                 8.9559

                    43                     44                     45
                     A                      A                      A
 Frequencies --  1658.7422              1773.9943              3032.2770
 Red. masses --     5.4417                11.3097                 1.0608
 Frc consts  --     8.8215                20.9704                 5.7470
 IR Inten    --    17.8505               139.3304                23.4273

                    46                     47                     48
                     A                      A                      A
 Frequencies --  3061.9831              3066.2691              3133.8762
 Red. masses --     1.1000                 1.0361                 1.1023
 Frc consts  --     6.0765                 5.7394                 6.3785
 IR Inten    --    11.0072                28.1835                23.5020

                    49                     50                     51
                     A                      A                      A
 Frequencies --  3143.5404              3185.2182              3195.6242
 Red. masses --     1.1028                 1.0854                 1.0892
 Frc consts  --     6.4208                 6.4881                 6.5533
 IR Inten    --    23.0679                 0.0915                12.3510

                    52                     53                     54
                     A                      A                      A
 Frequencies --  3206.5520              3217.1082              3226.7568
 Red. masses --     1.0933                 1.0941                 1.0927
 Frc consts  --     6.6233                 6.6716                 6.7035
 IR Inten    --    28.9090                13.1975                 5.4507

 - Thermochemistry -
 -------------------
 Temperature   298.150 Kelvin.  Pressure   1.00000 Atm.
 Atom     1 has atomic number  6 and mass  12.00000

 Molecular mass:   134.07317 amu.
 Principal axes and moments of inertia in atomic units:
                           1         2         3
     Eigenvalues --   522.667112283.877482784.37416
           X            0.99985  -0.01752   0.00000
           Y            0.01752   0.99985   0.00001
           Z           -0.00000  -0.00001   1.00000
 This molecule is an asymmetric top.
 Rotational symmetry number  1.
 Warning -- assumption of classical behavior for rotation
           may cause significant error
 Rotational temperatures (Kelvin)      0.16572     0.03792     0.03111
 Rotational constants (GHZ):           3.45295     0.79021     0.64817
 Zero-point vibrational energy     438926.9 (Joules/Mol)
                                  104.90604 (Kcal/Mol)
 Warning -- explicit consideration of  11 degrees of freedom as
           vibrations may cause significant error
 Vibrational temperatures:     70.12   120.86   218.54   236.59   301.45
          (Kelvin)            433.04   491.62   596.50   619.86   683.34
                              838.07   908.56   942.40  1016.40  1087.61
                             1101.19  1203.49  1247.58  1364.73  1393.71
                             1416.09  1453.04  1465.43  1478.41  1521.17
                             1582.41  1597.47  1605.50  1717.57  1744.20
                             1792.08  1865.87  1940.70  1968.25  2006.38
                             2074.21  2145.91  2151.83  2190.51  2198.32
                             2216.42  2357.94  2386.56  2552.38  4362.76
                             4405.51  4411.67  4508.94  4522.85  4582.81
                             4597.78  4613.51  4628.70  4642.58

 Zero-point correction=                           0.167178 (Hartree/Particle)
 Thermal correction to Energy=                    0.176344
 Thermal correction to Enthalpy=                  0.177288
 Thermal correction to Gibbs Free Energy=         0.132324
 Sum of electronic and zero-point Energies=           -424.043137
 Sum of electronic and thermal Energies=              -424.033972
 Sum of electronic and thermal Enthalpies=            -424.033027
 Sum of electronic and thermal Free Energies=         -424.077991

                     E (Thermal)             CV                S
                      KCal/Mol        Cal/Mol-Kelvin    Cal/Mol-Kelvin
 Total                  110.658             34.370             94.634
 Electronic               0.000              0.000              0.000
 Translational            0.889              2.981             40.592
 Rotational               0.889              2.981             29.587
 Vibrational            108.880             28.409             24.455
 Vibration     1          0.595              1.978              4.868
 Vibration     2          0.601              1.960              3.795
 Vibration     3          0.619              1.901              2.648
 Vibration     4          0.623              1.886              2.498
 Vibration     5          0.642              1.826              2.048
 Vibration     6          0.693              1.672              1.411
 Vibration     7          0.721              1.592              1.204
 Vibration     8          0.778              1.439              0.911
 Vibration     9          0.792              1.403              0.856
 Vibration    10          0.832              1.306              0.724
 Vibration    11          0.939              1.069              0.481

 Normal termination of Gaussian 09 at Mon Oct  4 05:30:58 2021.
 Gaussian 09:  AM64L-G09RevA.02 11-Jun-2009

 ----------------------------------------------------------------------
 #p TD(NStates=10, Root=1) b3lyp/6-31G* volume pop=NPA density=current
 Geom=AllCheck Guess=Read
 ----------------------------------------------------------------------

 CCC(=O)c1ccccc1_conf_0
 ----------------------
 Redundant internal coordinates taken from checkpoint file:
 C9H10O_2b9a_conf_0.chk
 Charge =  0 Multiplicity = 1

                         Standard orientation:
 ---------------------------------------------------------------------
 Center     Atomic      Atomic             Coordinates (Angstroms)
 Number     Number       Type             X           Y           Z
 ---------------------------------------------------------------------
      1          6           0        3.633412   -0.380913    0.000227
      2          6           0        2.166424   -0.806715   -0.000152
      3          6           0        1.202089    0.376665   -0.000073
      4          8           0        1.623559    1.523857   -0.000134
      5          6           0       -0.275772    0.109440   -0.000017
      6          6           0       -0.817270   -1.185139   -0.000035
      7          6           0       -2.199431   -1.372696    0.000000
      8          6           0       -3.054466   -0.269205    0.000055
      9          6           0       -2.524281    1.024585    0.000070
     10          6           0       -1.145578    1.211627    0.000034
     11          1           0        4.287413   -1.259235   -0.000945
     12          1           0        3.865361    0.223896    0.881635
     13          1           0        3.865102    0.226181   -0.879658
     14          1           0        1.943706   -1.435186    0.873979
     15          1           0        1.944021   -1.434694   -0.874732
     16          1           0       -0.165199   -2.052907   -0.000089
     17          1           0       -2.608271   -2.379439   -0.000015
     18          1           0       -4.131315   -0.416299    0.000089
     19          1           0       -3.188440    1.884709    0.000106
     20          1           0       -0.711612    2.206214    0.000042
 ---------------------------------------------------------------------

 SCF Done:  E(RB3LYP) =  -424.210315644     A.U. after    1 cycles

 Excitation energies and oscillator strengths:

 Excited State   1:      Singlet-A      3.7725 eV  328.65 nm  f=0.0000  <S**2>=0.000
      36 -> 37         0.69496
      36 -> 39        -0.12476
 This state for optimization and/or second-order correction.
 Total Energy, E(TD-HF/TD-KS) =  -424.071677202
 Copying the excited state density for this state as the 1-particle RhoCI density.

 Excited State   2:      Singlet-A      4.8362 eV  256.37 nm  f=0.0173  <S**2>=0.000
      34 -> 37         0.49206
      34 -> 38        -0.17025
      35 -> 37         0.42596
      35 -> 38         0.21738

 Excited State   3:      Singlet-A      5.3054 eV  233.70 nm  f=0.2436  <S**2>=0.000
      34 -> 37        -0.43370
      34 -> 38        -0.10330
      35 -> 37         0.52483
      35 -> 38        -0.12926

 Excited State   4:      Singlet-A      5.6201 eV  220.61 nm  f=0.0000  <S**2>=0.000
      36 -> 38         0.70619

 Excited State   5:      Singlet-A      6.3767 eV  194.43 nm  f=0.0983  <S**2>=0.000
      34 -> 37        -0.21124
      34 -> 38        -0.35238
      34 -> 39         0.24879
      35 -> 37        -0.13382
      35 -> 38         0.45838
      35 -> 39         0.19220

 Excited State   6:      Singlet-A      6.5689 eV  188.74 nm  f=0.0007  <S**2>=0.000
      31 -> 37        -0.11564
      32 -> 37        -0.16567
      36 -> 37         0.12596
      36 -> 39         0.66098

 Excited State   7:      Singlet-A      6.7591 eV  183.43 nm  f=0.0001  <S**2>=0.000
      32 -> 37         0.67763
      36 -> 39         0.16031

 Excited State   8:      Singlet-A      6.7663 eV  183.24 nm  f=0.3485  <S**2>=0.000
      34 -> 38         0.50178
      34 -> 39         0.13500
      35 -> 38         0.38843
      35 -> 39        -0.21650

 Excited State   9:      Singlet-A      7.0986 eV  174.66 nm  f=0.0003  <S**2>=0.000
      31 -> 37         0.68972
      36 -> 39         0.12346

 Excited State  10:      Singlet-A      7.2448 eV  171.14 nm  f=0.0433  <S**2>=0.000
      30 -> 37         0.14033
      33 -> 37         0.65532
      35 -> 39        -0.14913

 The electronic state is 1-A.
 Alpha  occ. eigenvalues --  -19.13429 -10.27234 -10.20360 -10.20280 -10.20071
 Alpha  occ. eigenvalues --  -10.19989 -10.19784 -10.19585 -10.19446 -10.17445
 Alpha  occ. eigenvalues --   -1.03360  -0.86174  -0.78244  -0.75641  -0.75193
 Alpha  occ. eigenvalues --   -0.66114  -0.61870  -0.60355  -0.54545  -0.51350
 Alpha  occ. eigenvalues --   -0.47294  -0.46129  -0.45753  -0.44493  -0.42850
 Alpha  occ. eigenvalues --   -0.42042  -0.39056  -0.37767  -0.36379  -0.35928
 Alpha  occ. eigenvalues --   -0.35679  -0.34558  -0.34280  -0.26019  -0.25685
 Alpha  occ. eigenvalues --   -0.24659
 Alpha virt. eigenvalues --   -0.05304  -0.00800   0.04173   0.08646   0.10430
 Alpha virt. eigenvalues --    0.13222   0.14737   0.15375   0.16078   0.16658
 Alpha virt. eigenvalues --    0.17202   0.18576   0.19419   0.20017   0.22565

 Mulliken atomic charges:
              1
     1  C   -0.456513
     2  C   -0.324186
     3  C    0.310111
     4  O   -0.317654
     5  C    0.106022
     6  C   -0.206433
     7  C   -0.130175
     8  C   -0.147850
     9  C   -0.131527
    10  C   -0.187538
    11  H    0.155934
    12  H    0.169075
    13  H    0.169098
    14  H    0.186785
    15  H    0.186783
    16  H    0.114463
    17  H    0.124558
    18  H    0.117993
    19  H    0.125865
    20  H    0.135189
 Sum of Mulliken atomic charges =   0.00000

 Dipole moment (field-independent basis, Debye):
    X=              1.7609    Y=             -1.5529    Z=             -0.0001  Tot=              2.3479
 Quadrupole moment (field-independent basis, Debye-Ang):
   XX=            -52.8997   YY=            -56.6372   ZZ=            -61.7651
   XY=             -3.8206   XZ=             -0.0003   YZ=              0.0003

 Summary of Natural Population Analysis:

                                       Natural Population
                Natural  -----------------------------------------------
    Atom  No    Charge         Core      Valence    Rydberg      Total
 -----------------------------------------------------------------------
      C    1   -0.68108      1.99947     4.67271    0.00890     6.68108
      C    2   -0.48482      1.99924     4.47713    0.00844     6.48482
      C    3    0.37647      1.99926     3.59040    0.03387     5.62353
      O    4   -0.26224      1.99981     6.24462    0.01782     8.26224
      C    5   -0.15376      1.99889     4.13980    0.01507     6.15376
      C    6   -0.24830      1.99904     4.23634    0.01292     6.24830
      C    7   -0.22744      1.99910     4.21409    0.01426     6.22744
      C    8   -0.27126      1.99910     4.25753    0.01463     6.27126
      C    9   -0.22897      1.99910     4.21595    0.01392     6.22897
      C   10   -0.23175      1.99905     4.21836    0.01434     6.23175
      H   11    0.24157      0.00000     0.75780    0.00063     0.75843
      H   12    0.24053      0.00000     0.75846    0.00101     0.75947
      H   13    0.24054      0.00000     0.75845    0.00101     0.75946
      H   14    0.26222      0.00000     0.73594    0.00183     0.73778
      H   15    0.26222      0.00000     0.73594    0.00184     0.73778
      H   16    0.22659      0.00000     0.77245    0.00096     0.77341
      H   17    0.23517      0.00000     0.76401    0.00082     0.76483
      H   18    0.23091      0.00000     0.76828    0.00081     0.76909
      H   19    0.23605      0.00000     0.76311    0.00084     0.76395
      H   20    0.23733      0.00000     0.76182    0.00085     0.76267
 =======================================================================
   * Total *    0.00000     19.99205    51.84319    0.16476    72.00000

 Normal termination of Gaussian 09 at Mon Oct  4 08:47:49 2021.
