 Gaussian 09, Revision A.02,

 -----------------------------------
 #p opt b3lyp/6-31G* scf=(xqc,tight)
 -----------------------------------

 ----------------------
 NCCc1ccc(cc1)OC_conf_0
 ----------------------
 Symbolic Z-matrix:
 Charge =  0 Multiplicity = 1

 SCF Done:  E(RB3LYP) =  -480.739902517     A.U. after   14 cycles
 SCF Done:  E(RB3LYP) =  -480.742214890     A.U. after   12 cycles
 SCF Done:  E(RB3LYP) =  -480.742374747     A.U. after   10 cycles
 SCF Done:  E(RB3LYP) =  -480.742393418     A.U. after   10 cycles
 SCF Done:  E(RB3LYP) =  -480.742400910     A.U. after   10 cycles
 SCF Done:  E(RB3LYP) =  -480.742408307     A.U. after   10 cycles
 SCF Done:  E(RB3LYP) =  -480.742412915     A.U. after   10 cycles
 SCF Done:  E(RB3LYP) =  -480.742415631     A.U. after    9 cycles
 SCF Done:  E(RB3LYP) =  -480.742417159     A.U. after    8 cycles
 SCF Done:  E(RB3LYP) =  -480.742417643     A.U. after    8 cycles
 Optimization completed.
    -- Stationary point found.
 Normal termination of Gaussian 09 at Thu Sep 30 13:21:36 2021.

 ----------------------------------------------------------------------
 #p freq b3lyp/6-31G* volume NMR pop=NPA density=current Geom=AllCheck
 Guess=Read
 ----------------------------------------------------------------------

 NCCc1ccc(cc1)OC_conf_0
 ----------------------
 Redundant internal coordinates taken from checkpoint file:
 C9H13NO_7ff1_conf_0.chk
 Charge =  0 Multiplicity = 1

 SCF Done:  E(RB3LYP) =  -480.742417643     A.U. after    1 cycles

  1  N    Isotropic =   222.5607   Anisotropy =    30.6651

  2  C    Isotropic =   140.7367   Anisotropy =    44.7485

  3  C    Isotropic =   149.1022   Anisotropy =    33.4030

  4  C    Isotropic =    64.4652   Anisotropy =   170.8174

  5  C    Isotropic =    66.5947   Anisotropy =   146.9572

  6  C    Isotropic =    86.8973   Anisotropy =   141.6692

  7  C    Isotropic =    40.4616   Anisotropy =   126.4330

  8  C    Isotropic =    78.3009   Anisotropy =   134.5676

  9  C    Isotropic =    66.0071   Anisotropy =   151.3230

 10  O    Isotropic =   240.0126   Anisotropy =    75.9541

 11  C    Isotropic =   137.6292   Anisotropy =    64.7394

 12  H    Isotropic =    31.7032   Anisotropy =    14.4588

 13  H    Isotropic =    32.1893   Anisotropy =    11.3898

 14  H    Isotropic =    29.2679   Anisotropy =     4.9766

 15  H    Isotropic =    29.5582   Anisotropy =     4.3761

 16  H    Isotropic =    29.3336   Anisotropy =     4.8615

 17  H    Isotropic =    29.9060   Anisotropy =     4.4744

 18  H    Isotropic =    25.2998   Anisotropy =     7.2089

 19  H    Isotropic =    25.9323   Anisotropy =     7.2616

 20  H    Isotropic =    25.5585   Anisotropy =     5.7235

 21  H    Isotropic =    25.1222   Anisotropy =     7.0964

 22  H    Isotropic =    28.3500   Anisotropy =     8.0481

 23  H    Isotropic =    28.6898   Anisotropy =     8.0263

 24  H    Isotropic =    28.7009   Anisotropy =     7.9307

  Exact polarizability: 150.698  -1.849 100.267   7.425   3.295  60.558
 Approx polarizability: 198.003  -0.008 170.574  16.026   7.502  88.126

                     1                      2                      3
                     A                      A                      A
 Frequencies --    39.2702                63.9571                94.9692
 Red. masses --     2.9008                 3.6465                 2.1855
 Frc consts  --     0.0026                 0.0088                 0.0116
 IR Inten    --     0.6933                 1.2603                 4.6214

                     4                      5                      6
                     A                      A                      A
 Frequencies --   106.0877               197.9692               230.5832
 Red. masses --     3.8228                 2.7024                 2.9413
 Frc consts  --     0.0253                 0.0624                 0.0921
 IR Inten    --     2.8420                 0.9644                 3.0662

                     7                      8                      9
                     A                      A                      A
 Frequencies --   258.5146               263.1958               322.6432
 Red. masses --     1.2013                 1.2940                 2.9130
 Frc consts  --     0.0473                 0.0528                 0.1787
 IR Inten    --    33.6098                 1.6586                19.0464

                    10                     11                     12
                     A                      A                      A
 Frequencies --   353.9801               390.5492               427.9757
 Red. masses --     2.8158                 4.4950                 3.1634
 Frc consts  --     0.2079                 0.4040                 0.3414
 IR Inten    --     1.4960                 5.4039                 0.1330

                    13                     14                     15
                     A                      A                      A
 Frequencies --   467.7726               534.7248               572.4113
 Red. masses --     4.1269                 2.8917                 3.4857
 Frc consts  --     0.5320                 0.4871                 0.6729
 IR Inten    --     1.5807                12.7291                15.0761

                    16                     17                     18
                     A                      A                      A
 Frequencies --   654.6491               726.0042               768.6818
 Red. masses --     6.7168                 3.9549                 3.9352
 Frc consts  --     1.6960                 1.2282                 1.3700
 IR Inten    --     0.5744                 1.1089                 7.0915

                    19                     20                     21
                     A                      A                      A
 Frequencies --   798.6486               825.1244               841.3894
 Red. masses --     1.1643                 1.3642                 1.8841
 Frc consts  --     0.4375                 0.5472                 0.7859
 IR Inten    --     5.1409                14.1334                28.0380

                    22                     23                     24
                     A                      A                      A
 Frequencies --   858.5625               885.6209               938.4228
 Red. masses --     2.8021                 1.3606                 1.3535
 Frc consts  --     1.2170                 0.6287                 0.7023
 IR Inten    --    33.1727               126.6391                 0.5408

                    25                     26                     27
                     A                      A                      A
 Frequencies --   958.7668               978.9991              1032.8805
 Red. masses --     1.3699                 1.9193                 2.7730
 Frc consts  --     0.7419                 1.0838                 1.7430
 IR Inten    --     0.3089                 0.4729                 0.1747

                    28                     29                     30
                     A                      A                      A
 Frequencies --  1057.0607              1081.1842              1096.1595
 Red. masses --     2.1049                 5.9958                 2.1804
 Frc consts  --     1.3858                 4.1295                 1.5436
 IR Inten    --    19.5639                44.8728                14.2026

                    31                     32                     33
                     A                      A                      A
 Frequencies --  1143.1428              1170.2426              1185.7615
 Red. masses --     1.3523                 1.2376                 1.2710
 Frc consts  --     1.0412                 0.9986                 1.0529
 IR Inten    --    14.7890                 1.4018                 0.7587

                    34                     35                     36
                     A                      A                      A
 Frequencies --  1210.6707              1219.0514              1234.8447
 Red. masses --     1.1585                 1.3979                 2.3850
 Frc consts  --     1.0005                 1.2240                 2.1427
 IR Inten    --    18.2665                 8.9166                 0.4219

                    37                     38                     39
                     A                      A                      A
 Frequencies --  1278.7312              1296.4517              1331.5707
 Red. masses --     1.4855                 4.4013                 1.2249
 Frc consts  --     1.4311                 4.3586                 1.2796
 IR Inten    --     4.9430               260.9631                 1.2803

                    40                     41                     42
                     A                      A                      A
 Frequencies --  1349.1801              1363.2880              1376.9547
 Red. masses --     1.6444                 1.5848                 2.1219
 Frc consts  --     1.7636                 1.7354                 2.3704
 IR Inten    --    15.0535                11.1221                19.9475

                    43                     44                     45
                     A                      A                      A
 Frequencies --  1440.8763              1468.3895              1500.6096
 Red. masses --     1.4217                 2.8702                 1.1952
 Frc consts  --     1.7391                 3.6462                 1.5857
 IR Inten    --    17.8295                 0.6384                17.1382

                    46                     47                     48
                     A                      A                      A
 Frequencies --  1519.7965              1520.9760              1535.4674
 Red. masses --     1.0916                 1.0481                 1.0634
 Frc consts  --     1.4856                 1.4286                 1.4771
 IR Inten    --     1.5248                 5.1366                42.4236

                    49                     50                     51
                     A                      A                      A
 Frequencies --  1545.4032              1567.2106              1634.0712
 Red. masses --     1.0900                 2.4406                 6.4358
 Frc consts  --     1.5337                 3.5319                10.1251
 IR Inten    --     2.4566               103.0642                11.3597

                    52                     53                     54
                     A                      A                      A
 Frequencies --  1676.0066              1696.5402              2955.7927
 Red. masses --     5.8012                 1.0894                 1.0735
 Frc consts  --     9.6011                 1.8474                 5.5257
 IR Inten    --    48.9459                24.1019                72.7294

                    55                     56                     57
                     A                      A                      A
 Frequencies --  3022.2194              3032.4277              3068.5464
 Red. masses --     1.0350                 1.0656                 1.0860
 Frc consts  --     5.5698                 5.7735                 6.0246
 IR Inten    --    58.7253                30.0558                24.8678

                    58                     59                     60
                     A                      A                      A
 Frequencies --  3079.5282              3090.3694              3154.6515
 Red. masses --     1.1066                 1.1003                 1.0994
 Frc consts  --     6.1829                 6.1915                 6.4461
 IR Inten    --    46.8952                33.2701                29.7593

                    61                     62                     63
                     A                      A                      A
 Frequencies --  3173.6318              3177.7193              3212.3604
 Red. masses --     1.0891                 1.0886                 1.0930
 Frc consts  --     6.4627                 6.4769                 6.6451
 IR Inten    --    18.7393                15.9075                 8.9330

                    64                     65                     66
                     A                      A                      A
 Frequencies --  3223.1164              3456.6265              3541.7807
 Red. masses --     1.0909                 1.0500                 1.0919
 Frc consts  --     6.6773                 7.3918                 8.0698
 IR Inten    --    13.1713                 3.8139                 1.0307

 - Thermochemistry -
 -------------------
 Temperature   298.150 Kelvin.  Pressure   1.00000 Atm.
 Atom     1 has atomic number  7 and mass  14.00307

 Molecular mass:   151.09971 amu.
 Principal axes and moments of inertia in atomic units:
                           1         2         3
     Eigenvalues --   487.887633989.179694259.63012
           X            0.99998  -0.00602  -0.00147
           Y            0.00602   0.99998  -0.00162
           Z            0.00147   0.00161   1.00000
 This molecule is an asymmetric top.
 Rotational symmetry number  1.
 Warning -- assumption of classical behavior for rotation
           may cause significant error
 Rotational temperatures (Kelvin)      0.17753     0.02171     0.02033
 Rotational constants (GHZ):           3.69909     0.45241     0.42368
 Zero-point vibrational energy     545980.2 (Joules/Mol)
                                  130.49241 (Kcal/Mol)
 Warning -- explicit consideration of  15 degrees of freedom as
           vibrations may cause significant error
 Vibrational temperatures:     56.50    92.02   136.64   152.64   284.83
          (Kelvin)            331.76   371.94   378.68   464.21   509.30
                              561.91   615.76   673.02   769.35   823.57
                              941.89  1044.56  1105.96  1149.08  1187.17
                             1210.57  1235.28  1274.21  1350.18  1379.45
                             1408.56  1486.08  1520.87  1555.58  1577.13
                             1644.73  1683.72  1706.04  1741.88  1753.94
                             1776.66  1839.81  1865.30  1915.83  1941.17
                             1961.46  1981.13  2073.10  2112.68  2159.04
                             2186.65  2188.34  2209.19  2223.49  2254.86
                             2351.06  2411.40  2440.94  4252.72  4348.29
                             4362.98  4414.95  4430.75  4446.35  4538.83
                             4566.14  4572.02  4621.86  4637.34  4973.31
                             5095.83

 Zero-point correction=                           0.207953 (Hartree/Particle)
 Thermal correction to Energy=                    0.219026
 Thermal correction to Enthalpy=                  0.219970
 Thermal correction to Gibbs Free Energy=         0.170404
 Sum of electronic and zero-point Energies=           -480.534465
 Sum of electronic and thermal Energies=              -480.523392
 Sum of electronic and thermal Enthalpies=            -480.522448
 Sum of electronic and thermal Free Energies=         -480.572013

                     E (Thermal)             CV                S
                      KCal/Mol        Cal/Mol-Kelvin    Cal/Mol-Kelvin
 Total                  137.441             41.230            104.320
 Electronic               0.000              0.000              0.000
 Translational            0.889              2.981             40.948
 Rotational               0.889              2.981             30.495
 Vibrational            135.663             35.268             32.876
 Vibration     1          0.594              1.981              5.296
 Vibration     2          0.597              1.972              4.331
 Vibration     3          0.603              1.953              3.555
 Vibration     4          0.605              1.944              3.339
 Vibration     5          0.637              1.843              2.152
 Vibration     6          0.652              1.794              1.874
 Vibration     7          0.667              1.748              1.672
 Vibration     8          0.670              1.740              1.640
 Vibration     9          0.708              1.630              1.297
 Vibration    10          0.730              1.567              1.148
 Vibration    11          0.758              1.490              0.998
 Vibration    12          0.789              1.409              0.865
 Vibration    13          0.825              1.322              0.744
 Vibration    14          0.890              1.173              0.577
 Vibration    15          0.929              1.091              0.500

 Optimization completed.
    -- Stationary point found.
 Normal termination of Gaussian 09 at Thu Sep 30 13:52:12 2021.
 Gaussian 09:  AM64L-G09RevA.02 11-Jun-2009

 ----------------------------------------------------------------------
 #p TD(NStates=10, Root=1) b3lyp/6-31G* volume pop=NPA density=current
 Geom=AllCheck Guess=Read
 ----------------------------------------------------------------------

 NCCc1ccc(cc1)OC_conf_0
 ----------------------
 Redundant internal coordinates taken from checkpoint file:
 C9H13NO_7ff1_conf_0.chk
 Charge =  0 Multiplicity = 1

                         Standard orientation:
 ---------------------------------------------------------------------
 Center     Atomic      Atomic             Coordinates (Angstroms)
 Number     Number       Type             X           Y           Z
 ---------------------------------------------------------------------
      1          7           0       -4.576664   -0.139670    0.372697
      2          6           0       -3.135657   -0.098783    0.646164
      3          6           0       -2.341867   -0.057548   -0.670333
      4          6           0       -0.848428    0.050831   -0.454942
      5          6           0       -0.034332   -1.082773   -0.393288
      6          6           0        1.341525   -0.994329   -0.158065
      7          6           0        1.930155    0.261485    0.021994
      8          6           0        1.130704    1.412137   -0.038334
      9          6           0       -0.233721    1.300910   -0.272967
     10          8           0        3.261042    0.474010    0.254232
     11          6           0        4.114797   -0.654760    0.327036
     12          1           0       -5.093915   -0.114038    1.250188
     13          1           0       -4.814408   -1.029807   -0.064748
     14          1           0       -2.764299   -0.940179    1.259425
     15          1           0       -2.927959    0.815541    1.215752
     16          1           0       -2.710953    0.789221   -1.260991
     17          1           0       -2.568113   -0.964979   -1.248031
     18          1           0       -0.477183   -2.066379   -0.537326
     19          1           0        1.934931   -1.901159   -0.124108
     20          1           0        1.603814    2.380064    0.096429
     21          1           0       -0.837732    2.204588   -0.322161
     22          1           0        5.115243   -0.262784    0.520411
     23          1           0        4.123495   -1.218318   -0.615832
     24          1           0        3.826335   -1.329185    1.144676
 ---------------------------------------------------------------------

 SCF Done:  E(RB3LYP) =  -480.742417643     A.U. after    1 cycles

 Excitation energies and oscillator strengths:

 Excited State   1:      Singlet-A      5.0802 eV  244.05 nm  f=0.0281  <S**2>=0.000
      39 -> 43        -0.29434
      41 -> 42         0.63409
 This state for optimization and/or second-order correction.
 Total Energy, E(TD-HF/TD-KS) =  -480.555722767
 Copying the excited state density for this state as the 1-particle RhoCI density.

 Excited State   2:      Singlet-A      5.7956 eV  213.93 nm  f=0.0412  <S**2>=0.000
      39 -> 42         0.11224
      40 -> 42         0.57640
      41 -> 43         0.38712

 Excited State   3:      Singlet-A      5.8510 eV  211.90 nm  f=0.1681  <S**2>=0.000
      39 -> 42         0.27528
      40 -> 42        -0.40078
      41 -> 43         0.49976

 Excited State   4:      Singlet-A      6.1265 eV  202.37 nm  f=0.0033  <S**2>=0.000
      40 -> 43         0.69448

 Excited State   5:      Singlet-A      6.9151 eV  179.29 nm  f=0.3763  <S**2>=0.000
      38 -> 42         0.20075
      39 -> 42        -0.32193
      39 -> 43         0.49502
      41 -> 42         0.23943
      41 -> 43         0.18421

 Excited State   6:      Singlet-A      6.9531 eV  178.31 nm  f=0.5954  <S**2>=0.000
      38 -> 42         0.14434
      39 -> 42         0.53060
      39 -> 43         0.32437
      41 -> 42         0.13130
      41 -> 43        -0.22139

 Excited State   7:      Singlet-A      7.2017 eV  172.16 nm  f=0.0148  <S**2>=0.000
      40 -> 44         0.56725
      41 -> 44         0.31678
      41 -> 45         0.24154

 Excited State   8:      Singlet-A      7.2388 eV  171.28 nm  f=0.0105  <S**2>=0.000
      40 -> 44        -0.32416
      41 -> 44         0.12389
      41 -> 45         0.59668

 Excited State   9:      Singlet-A      7.4415 eV  166.61 nm  f=0.0016  <S**2>=0.000
      40 -> 44        -0.22374
      41 -> 44         0.61108
      41 -> 45        -0.25603

 Excited State  10:      Singlet-A      7.6020 eV  163.09 nm  f=0.0012  <S**2>=0.000
      37 -> 42         0.69324

 The electronic state is 1-A.
 Alpha  occ. eigenvalues --  -19.17323 -14.30847 -10.24071 -10.23857 -10.20301
 Alpha  occ. eigenvalues --  -10.18429 -10.18315 -10.18282 -10.18253 -10.17872
 Alpha  occ. eigenvalues --  -10.17871  -1.05880  -0.87530  -0.84567  -0.77062
 Alpha  occ. eigenvalues --   -0.74181  -0.71893  -0.67674  -0.60762  -0.60397
 Alpha  occ. eigenvalues --   -0.56808  -0.52789  -0.48717  -0.48102  -0.46485
 Alpha  occ. eigenvalues --   -0.46284  -0.44425  -0.42795  -0.42274  -0.41327
 Alpha  occ. eigenvalues --   -0.40015  -0.37688  -0.36137  -0.35509  -0.34109
 Alpha  occ. eigenvalues --   -0.33496  -0.31926  -0.30574  -0.24493  -0.23055
 Alpha  occ. eigenvalues --   -0.20904
 Alpha virt. eigenvalues --    0.00448   0.01817   0.08502   0.09374   0.10719
 Alpha virt. eigenvalues --    0.12723   0.13303   0.14628   0.14902   0.15734
 Alpha virt. eigenvalues --    0.16378   0.16876   0.17460   0.18412   0.19214

 Mulliken atomic charges:
              1
     1  N   -0.712830
     2  C   -0.130265
     3  C   -0.342947
     4  C    0.189837
     5  C   -0.220612
     6  C   -0.197935
     7  C    0.351728
     8  C   -0.189763
     9  C   -0.213294
    10  O   -0.448189
    11  C   -0.225541
    12  H    0.297564
    13  H    0.291931
    14  H    0.122047
    15  H    0.149306
    16  H    0.161423
    17  H    0.134266
    18  H    0.109354
    19  H    0.117968
    20  H    0.123509
    21  H    0.114744
    22  H    0.176670
    23  H    0.170798
    24  H    0.170229
 Sum of Mulliken atomic charges =  -0.00000

 Dipole moment (field-independent basis, Debye):
    X=              1.4508    Y=             -2.4733    Z=              1.0955  Tot=              3.0696
 Quadrupole moment (field-independent basis, Debye-Ang):
   XX=            -53.0364   YY=            -63.6803   ZZ=            -67.3527
   XY=              0.5069   XZ=             -2.8732   YZ=              0.2471

 Summary of Natural Population Analysis:

                                       Natural Population
                Natural  -----------------------------------------------
    Atom  No    Charge         Core      Valence    Rydberg      Total
 -----------------------------------------------------------------------
      N    1   -0.89250      1.99966     5.87754    0.01530     7.89250
      C    2   -0.24344      1.99933     4.23042    0.01369     6.24344
      C    3   -0.48692      1.99926     4.47327    0.01439     6.48692
      C    4    0.03760      1.99904     3.94563    0.01773     5.96240
      C    5   -0.28423      1.99906     4.26600    0.01916     6.28423
      C    6   -0.33727      1.99905     4.32063    0.01759     6.33727
      C    7    0.33012      1.99879     3.64799    0.02310     5.66988
      C    8   -0.31597      1.99906     4.29611    0.02079     6.31597
      C    9   -0.28706      1.99906     4.26968    0.01832     6.28706
      O   10   -0.42943      1.99975     6.41798    0.01169     8.42943
      C   11   -0.32488      1.99942     4.31134    0.01412     6.32488
      H   12    0.37680      0.00000     0.62177    0.00144     0.62320
      H   13    0.36775      0.00000     0.63046    0.00179     0.63225
      H   14    0.20024      0.00000     0.79718    0.00258     0.79976
      H   15    0.22782      0.00000     0.77029    0.00188     0.77218
      H   16    0.25374      0.00000     0.74353    0.00273     0.74626
      H   17    0.23277      0.00000     0.76510    0.00213     0.76723
      H   18    0.22324      0.00000     0.77565    0.00110     0.77676
      H   19    0.22567      0.00000     0.77333    0.00100     0.77433
      H   20    0.23562      0.00000     0.76312    0.00126     0.76438
      H   21    0.22668      0.00000     0.77232    0.00100     0.77332
      H   22    0.23091      0.00000     0.76854    0.00054     0.76909
      H   23    0.21650      0.00000     0.78146    0.00204     0.78350
      H   24    0.21624      0.00000     0.78167    0.00209     0.78376
 =======================================================================
   * Total *   -0.00000     21.99150    59.80105    0.20745    82.00000

 Normal termination of Gaussian 09 at Thu Sep 30 16:33:00 2021.
