 Gaussian 09, Revision A.02,

 -----------------------------------
 #p opt b3lyp/6-31G* scf=(xqc,tight)
 -----------------------------------

 -------------------------
 COc1cccc(c1)C(=O)C_conf_0
 -------------------------
 Symbolic Z-matrix:
 Charge =  0 Multiplicity = 1

 SCF Done:  E(RB3LYP) =  -499.415811717     A.U. after   15 cycles
 SCF Done:  E(RB3LYP) =  -499.418231553     A.U. after   13 cycles
 SCF Done:  E(RB3LYP) =  -499.419043310     A.U. after   12 cycles
 SCF Done:  E(RB3LYP) =  -499.418371170     A.U. after   16 cycles
 SCF Done:  E(RB3LYP) =  -499.419213943     A.U. after   16 cycles
 SCF Done:  E(RB3LYP) =  -499.419476842     A.U. after   11 cycles
 SCF Done:  E(RB3LYP) =  -499.419632338     A.U. after   16 cycles
 SCF Done:  E(RB3LYP) =  -499.419649455     A.U. after   16 cycles
 SCF Done:  E(RB3LYP) =  -499.419653117     A.U. after    8 cycles
 Optimization completed.
    -- Stationary point found.
 Normal termination of Gaussian 09 at Wed Sep 29 01:10:54 2021.

 ----------------------------------------------------------------------
 #p freq b3lyp/6-31G* volume NMR pop=NPA density=current Geom=AllCheck
 Guess=Read
 ----------------------------------------------------------------------

 COc1cccc(c1)C(=O)C_conf_0
 -------------------------
 Redundant internal coordinates taken from checkpoint file:
 C9H10O2_172f_conf_0.chk
 Charge =  0 Multiplicity = 1

 SCF Done:  E(RB3LYP) =  -499.419653117     A.U. after    1 cycles

  1  C    Isotropic =   137.1068   Anisotropy =    65.5916

  2  O    Isotropic =   235.3233   Anisotropy =    79.8073

  3  C    Isotropic =    38.3521   Anisotropy =   125.0558

  4  C    Isotropic =    73.4987   Anisotropy =   142.6571

  5  C    Isotropic =    67.5191   Anisotropy =   161.7263

  6  C    Isotropic =    74.4731   Anisotropy =   154.7962

  7  C    Isotropic =    59.3397   Anisotropy =   156.8417

  8  C    Isotropic =    85.3629   Anisotropy =   155.4379

  9  C    Isotropic =     3.1768   Anisotropy =   152.6565

 10  O    Isotropic =  -262.4537   Anisotropy =   928.4772

 11  C    Isotropic =   163.7153   Anisotropy =    39.5691

 12  H    Isotropic =    28.2766   Anisotropy =     7.9536

 13  H    Isotropic =    28.5177   Anisotropy =     7.9276

 14  H    Isotropic =    28.5168   Anisotropy =     7.9275

 15  H    Isotropic =    25.3297   Anisotropy =     6.0213

 16  H    Isotropic =    25.0145   Anisotropy =     4.6938

 17  H    Isotropic =    24.9950   Anisotropy =     6.8754

 18  H    Isotropic =    24.7913   Anisotropy =     8.9035

 19  H    Isotropic =    29.6638   Anisotropy =     4.4950

 20  H    Isotropic =    30.3031   Anisotropy =     6.2885

 21  H    Isotropic =    29.6665   Anisotropy =     4.5045

  Exact polarizability: 131.149   0.517 115.596   0.004   0.003  47.215
 Approx polarizability: 190.672  -4.860 199.388   0.007   0.006  70.540

                     1                      2                      3
                     A                      A                      A
 Frequencies --    55.5118                99.4156               149.9266
 Red. masses --     3.9118                 3.2630                 4.2105
 Frc consts  --     0.0071                 0.0190                 0.0558
 IR Inten    --     5.3737                 3.6837                 0.0851

                     4                      5                      6
                     A                      A                      A
 Frequencies --   154.9443               168.2680               216.3590
 Red. masses --     4.2984                 1.0280                 1.6860
 Frc consts  --     0.0608                 0.0171                 0.0465
 IR Inten    --     5.4876                 0.1270                 0.5414

                     7                      8                      9
                     A                      A                      A
 Frequencies --   271.8113               277.5629               360.8664
 Red. masses --     3.1590                 1.7866                 4.5938
 Frc consts  --     0.1375                 0.0811                 0.3525
 IR Inten    --     1.1307                 1.1567                 0.0900

                    10                     11                     12
                     A                      A                      A
 Frequencies --   433.1709               459.2989               469.2732
 Red. masses --     3.3553                 4.8800                 4.7913
 Frc consts  --     0.3709                 0.6065                 0.6217
 IR Inten    --     0.0028                 1.1917                 2.0098

                    13                     14                     15
                     A                      A                      A
 Frequencies --   525.1973               572.1605               597.0606
 Red. masses --     3.3873                 4.3951                 4.5894
 Frc consts  --     0.5505                 0.8477                 0.9639
 IR Inten    --     2.3204                16.6632                16.9488

                    16                     17                     18
                     A                      A                      A
 Frequencies --   646.7641               702.2380               711.4665
 Red. masses --     3.2508                 2.2745                 5.8186
 Frc consts  --     0.8012                 0.6609                 1.7353
 IR Inten    --     1.0820                11.0738                 9.8268

                    19                     20                     21
                     A                      A                      A
 Frequencies --   801.2367               878.4234               904.7829
 Red. masses --     1.4433                 4.8573                 1.4432
 Frc consts  --     0.5459                 2.2083                 0.6961
 IR Inten    --    32.8343                34.8368                 4.7082

                    22                     23                     24
                     A                      A                      A
 Frequencies --   915.8192               975.3717               993.3216
 Red. masses --     1.3440                 1.2713                 1.9399
 Frc consts  --     0.6642                 0.7126                 1.1277
 IR Inten    --    14.7463                 0.1525                 9.3400

                    25                     26                     27
                     A                      A                      A
 Frequencies --  1013.4702              1055.9614              1077.6118
 Red. masses --     5.9625                 1.8598                 5.3984
 Frc consts  --     3.6083                 1.2218                 3.6935
 IR Inten    --     1.9051                 1.4783                53.5345

                    28                     29                     30
                     A                      A                      A
 Frequencies --  1101.2372              1126.4421              1185.4223
 Red. masses --     1.8884                 1.5408                 1.2709
 Frc consts  --     1.3493                 1.1519                 1.0522
 IR Inten    --     0.3663                11.9259                 0.7679

                    31                     32                     33
                     A                      A                      A
 Frequencies --  1198.0325              1217.8158              1263.4610
 Red. masses --     1.1363                 1.4043                 2.8097
 Frc consts  --     0.9609                 1.2271                 2.6426
 IR Inten    --     3.4605                14.0294                91.3415

                    34                     35                     36
                     A                      A                      A
 Frequencies --  1313.0856              1328.6120              1384.9293
 Red. masses --     4.3473                 1.5387                 4.9962
 Frc consts  --     4.4163                 1.6003                 5.6461
 IR Inten    --   316.5353                 1.6026                56.7650

                    37                     38                     39
                     A                      A                      A
 Frequencies --  1409.5436              1476.4136              1499.9025
 Red. masses --     1.3144                 2.2835                 1.0614
 Frc consts  --     1.5386                 2.9327                 1.4069
 IR Inten    --    34.9831                96.4040                 7.7088

                    40                     41                     42
                     A                      A                      A
 Frequencies --  1506.6379              1508.1699              1521.2478
 Red. masses --     1.4563                 1.0484                 1.0472
 Frc consts  --     1.9477                 1.4049                 1.4278
 IR Inten    --     4.8032                 9.3046                 5.8246

                    43                     44                     45
                     A                      A                      A
 Frequencies --  1530.8716              1542.0489              1644.7486
 Red. masses --     1.2303                 1.7795                 5.9219
 Frc consts  --     1.6988                 2.4932                 9.4387
 IR Inten    --    73.5592                13.0254                 1.8192

                    46                     47                     48
                     A                      A                      A
 Frequencies --  1654.9108              1775.3858              3032.0764
 Red. masses --     5.6797                10.7140                 1.0342
 Frc consts  --     9.1649                19.8969                 5.6017
 IR Inten    --   102.9138               149.6561                43.9755

                    49                     50                     51
                     A                      A                      A
 Frequencies --  3055.3423              3093.0946              3115.2819
 Red. masses --     1.0380                 1.1069                 1.1000
 Frc consts  --     5.7091                 6.2397                 6.2898
 IR Inten    --     2.7117                38.3465                 9.6188

                    52                     53                     54
                     A                      A                      A
 Frequencies --  3160.7392              3169.9499              3193.8934
 Red. masses --     1.1006                 1.1015                 1.0872
 Frc consts  --     6.4785                 6.5214                 6.5343
 IR Inten    --    26.5177                12.3318                 9.0175

                    55                     56                     57
                     A                      A                      A
 Frequencies --  3215.4138              3221.9592              3246.0081
 Red. masses --     1.0910                 1.0947                 1.0891
 Frc consts  --     6.6457                 6.6956                 6.7612
 IR Inten    --    10.1443                10.7281                 5.6464

 - Thermochemistry -
 -------------------
 Temperature   298.150 Kelvin.  Pressure   1.00000 Atm.
 Atom     1 has atomic number  6 and mass  12.00000

 Molecular mass:   150.06808 amu.
 Principal axes and moments of inertia in atomic units:
                           1         2         3
     Eigenvalues --   966.032592335.080133278.36982
           X            0.99905   0.04352   0.00000
           Y           -0.04352   0.99905  -0.00000
           Z           -0.00000   0.00000   1.00000
 This molecule is an asymmetric top.
 Rotational symmetry number  1.
 Warning -- assumption of classical behavior for rotation
           may cause significant error
 Rotational temperatures (Kelvin)      0.08966     0.03709     0.02642
 Rotational constants (GHZ):           1.86820     0.77288     0.55050
 Zero-point vibrational energy     449676.1 (Joules/Mol)
                                  107.47517 (Kcal/Mol)
 Warning -- explicit consideration of  15 degrees of freedom as
           vibrations may cause significant error
 Vibrational temperatures:     79.87   143.04   215.71   222.93   242.10
          (Kelvin)            311.29   391.08   399.35   519.21   623.24
                              660.83   675.18   755.64   823.21   859.04
                              930.55  1010.36  1023.64  1152.80  1263.85
                             1301.78  1317.66  1403.34  1429.17  1458.16
                             1519.29  1550.44  1584.43  1620.70  1705.56
                             1723.70  1752.16  1817.84  1889.23  1911.57
                             1992.60  2028.02  2124.23  2158.02  2167.71
                             2169.92  2188.73  2202.58  2218.66  2366.42
                             2381.04  2554.38  4362.48  4395.95  4450.27
                             4482.19  4547.59  4560.85  4595.29  4626.26
                             4635.67  4670.28

 Zero-point correction=                           0.171273 (Hartree/Particle)
 Thermal correction to Energy=                    0.181623
 Thermal correction to Enthalpy=                  0.182568
 Thermal correction to Gibbs Free Energy=         0.135169
 Sum of electronic and zero-point Energies=           -499.248381
 Sum of electronic and thermal Energies=              -499.238030
 Sum of electronic and thermal Enthalpies=            -499.237085
 Sum of electronic and thermal Free Energies=         -499.284484

                     E (Thermal)             CV                S
                      KCal/Mol        Cal/Mol-Kelvin    Cal/Mol-Kelvin
 Total                  113.970             38.676             99.759
 Electronic               0.000              0.000              0.000
 Translational            0.889              2.981             40.928
 Rotational               0.889              2.981             30.382
 Vibrational            112.193             32.714             28.449
 Vibration     1          0.596              1.975              4.611
 Vibration     2          0.604              1.950              3.466
 Vibration     3          0.618              1.903              2.673
 Vibration     4          0.620              1.897              2.611
 Vibration     5          0.625              1.882              2.455
 Vibration     6          0.645              1.816              1.989
 Vibration     7          0.675              1.725              1.585
 Vibration     8          0.679              1.715              1.549
 Vibration     9          0.735              1.553              1.118
 Vibration    10          0.794              1.398              0.848
 Vibration    11          0.817              1.340              0.768
 Vibration    12          0.826              1.318              0.740
 Vibration    13          0.880              1.194              0.598
 Vibration    14          0.928              1.091              0.500
 Vibration    15          0.955              1.038              0.455

 Normal termination of Gaussian 09 at Wed Sep 29 01:37:01 2021.
 Gaussian 09:  AM64L-G09RevA.02 11-Jun-2009

 ----------------------------------------------------------------------
 #p TD(NStates=10, Root=1) b3lyp/6-31G* volume pop=NPA density=current
 Geom=AllCheck Guess=Read
 ----------------------------------------------------------------------

 COc1cccc(c1)C(=O)C_conf_0
 -------------------------
 Redundant internal coordinates taken from checkpoint file:
 C9H10O2_172f_conf_0.chk
 Charge =  0 Multiplicity = 1

                         Standard orientation:
 ---------------------------------------------------------------------
 Center     Atomic      Atomic             Coordinates (Angstroms)
 Number     Number       Type             X           Y           Z
 ---------------------------------------------------------------------
      1          6           0       -2.951457   -1.660803    0.000313
      2          8           0       -2.804737   -0.247679   -0.000112
      3          6           0       -1.541988    0.266155   -0.000062
      4          6           0       -1.458543    1.669466   -0.000128
      5          6           0       -0.216938    2.292407    0.000048
      6          6           0        0.958514    1.535188    0.000177
      7          6           0        0.880021    0.138241   -0.000068
      8          6           0       -0.374498   -0.495465   -0.000220
      9          6           0        2.095051   -0.741727   -0.000321
     10          8           0        1.983883   -1.959009   -0.000052
     11          6           0        3.470911   -0.095249    0.000134
     12          1           0       -4.026622   -1.848271    0.000292
     13          1           0       -2.502788   -2.111820    0.894702
     14          1           0       -2.502661   -2.112351   -0.893727
     15          1           0       -2.380367    2.243000   -0.000394
     16          1           0       -0.162521    3.377566    0.000068
     17          1           0        1.919973    2.037741    0.000617
     18          1           0       -0.387751   -1.578386   -0.000606
     19          1           0        3.607918    0.541448   -0.881880
     20          1           0        4.226593   -0.882547   -0.001654
     21          1           0        3.608607    0.537844    0.884673
 ---------------------------------------------------------------------

 SCF Done:  E(RB3LYP) =  -499.419653117     A.U. after    2 cycles

 Excitation energies and oscillator strengths:

 Excited State   1:      Singlet-A      3.7669 eV  329.14 nm  f=0.0000  <S**2>=0.000
      39 -> 41         0.69539
      39 -> 43        -0.11868
 This state for optimization and/or second-order correction.
 Total Energy, E(TD-HF/TD-KS) =  -499.281221580
 Copying the excited state density for this state as the 1-particle RhoCI density.

 Excited State   2:      Singlet-A      4.1958 eV  295.49 nm  f=0.0469  <S**2>=0.000
      38 -> 41         0.12497
      38 -> 42         0.14508
      40 -> 41         0.67778

 Excited State   3:      Singlet-A      5.1430 eV  241.07 nm  f=0.1406  <S**2>=0.000
      38 -> 41         0.63905
      40 -> 41        -0.14333
      40 -> 42        -0.24446

 Excited State   4:      Singlet-A      5.9667 eV  207.79 nm  f=0.0002  <S**2>=0.000
      39 -> 42         0.70255

 Excited State   5:      Singlet-A      5.9716 eV  207.62 nm  f=0.2738  <S**2>=0.000
      37 -> 41         0.10701
      38 -> 41         0.24773
      38 -> 42        -0.16734
      38 -> 43        -0.17788
      40 -> 42         0.56876
      40 -> 43        -0.19458

 Excited State   6:      Singlet-A      6.5012 eV  190.71 nm  f=0.0568  <S**2>=0.000
      37 -> 41        -0.40670
      38 -> 42         0.44653
      40 -> 42         0.26167
      40 -> 43         0.21955

 Excited State   7:      Singlet-A      6.5989 eV  187.89 nm  f=0.1144  <S**2>=0.000
      37 -> 41         0.48287
      38 -> 42         0.15841
      40 -> 42         0.10186
      40 -> 43         0.46391

 Excited State   8:      Singlet-A      6.6165 eV  187.39 nm  f=0.0005  <S**2>=0.000
      34 -> 41         0.10838
      36 -> 41         0.59016
      39 -> 43        -0.34905

 Excited State   9:      Singlet-A      6.7433 eV  183.86 nm  f=0.0004  <S**2>=0.000
      34 -> 41         0.10274
      36 -> 41         0.34728
      39 -> 43         0.59372

 Excited State  10:      Singlet-A      7.1665 eV  173.01 nm  f=0.0001  <S**2>=0.000
      33 -> 41        -0.13139
      34 -> 41         0.67300
      36 -> 41        -0.12959

 The electronic state is 1-A.
 Alpha  occ. eigenvalues --  -19.18143 -19.13372 -10.27466 -10.25345 -10.24197
 Alpha  occ. eigenvalues --  -10.20097 -10.19915 -10.19628 -10.19598 -10.19125
 Alpha  occ. eigenvalues --  -10.18833  -1.06752  -1.03292  -0.85870  -0.77557
 Alpha  occ. eigenvalues --   -0.75303  -0.73670  -0.69741  -0.63274  -0.59949
 Alpha  occ. eigenvalues --   -0.55597  -0.51660  -0.49395  -0.48189  -0.47028
 Alpha  occ. eigenvalues --   -0.45763  -0.44284  -0.44134  -0.42528  -0.40742
 Alpha  occ. eigenvalues --   -0.39149  -0.38454  -0.37910  -0.35938  -0.35768
 Alpha  occ. eigenvalues --   -0.33356  -0.32124  -0.25655  -0.24701  -0.22724
 Alpha virt. eigenvalues --   -0.05291   0.00400   0.04561   0.08949   0.10642
 Alpha virt. eigenvalues --    0.11387   0.13233   0.15352   0.15485   0.16262
 Alpha virt. eigenvalues --    0.16482   0.16900   0.17828   0.18216   0.19629

 Mulliken atomic charges:
              1
     1  C   -0.211413
     2  O   -0.510342
     3  C    0.377580
     4  C   -0.186978
     5  C   -0.134499
     6  C   -0.212098
     7  C    0.109354
     8  C   -0.271110
     9  C    0.310247
    10  O   -0.307365
    11  C   -0.513957
    12  H    0.166130
    13  H    0.151605
    14  H    0.151604
    15  H    0.127525
    16  H    0.126523
    17  H    0.111134
    18  H    0.137666
    19  H    0.197620
    20  H    0.183174
    21  H    0.197599
 Sum of Mulliken atomic charges =  -0.00000

 Dipole moment (field-independent basis, Debye):
    X=              2.0250    Y=             -0.4133    Z=              0.0007  Tot=              2.0668
 Quadrupole moment (field-independent basis, Debye-Ang):
   XX=            -53.5293   YY=            -61.2659   ZZ=            -66.8058
   XY=              6.3522   XZ=              0.0003   YZ=             -0.0002

 Summary of Natural Population Analysis:

                                       Natural Population
                Natural  -----------------------------------------------
    Atom  No    Charge         Core      Valence    Rydberg      Total
 -----------------------------------------------------------------------
      C    1   -0.31581      1.99943     4.30255    0.01382     6.31581
      O    2   -0.51996      1.99974     6.50858    0.01164     8.51996
      C    3    0.32643      1.99880     3.65228    0.02249     5.67357
      C    4   -0.30277      1.99904     4.28881    0.01493     6.30277
      C    5   -0.21972      1.99910     4.20632    0.01430     6.21972
      C    6   -0.26830      1.99903     4.25628    0.01299     6.26830
      C    7   -0.13781      1.99891     4.12349    0.01541     6.13781
      C    8   -0.32736      1.99897     4.31587    0.01251     6.32736
      C    9    0.37314      1.99929     3.59507    0.03250     5.62686
      O   10   -0.25670      1.99981     6.23884    0.01805     8.25670
      C   11   -0.70784      1.99932     4.70176    0.00676     6.70784
      H   12    0.22606      0.00000     0.77340    0.00054     0.77394
      H   13    0.20232      0.00000     0.79575    0.00193     0.79768
      H   14    0.20230      0.00000     0.79577    0.00193     0.79770
      H   15    0.24162      0.00000     0.75720    0.00117     0.75838
      H   16    0.23768      0.00000     0.76155    0.00077     0.76232
      H   17    0.22726      0.00000     0.77179    0.00095     0.77274
      H   18    0.23907      0.00000     0.76000    0.00093     0.76093
      H   19    0.26163      0.00000     0.73715    0.00122     0.73837
      H   20    0.25716      0.00000     0.74171    0.00113     0.74284
      H   21    0.26160      0.00000     0.73717    0.00123     0.73840
 =======================================================================
   * Total *    0.00000     21.99144    57.82135    0.18722    80.00000

 Normal termination of Gaussian 09 at Wed Sep 29 03:32:31 2021.
