 Gaussian 09, Revision A.02,

 -----------------------------------
 #p opt b3lyp/6-31G* scf=(xqc,tight)
 -----------------------------------

 ---------------------------
 CP(C(C)(C)C)C(C)(C)C_conf_0
 ---------------------------
 Symbolic Z-matrix:
 Charge =  0 Multiplicity = 1

 SCF Done:  E(RB3LYP) =  -696.953424291     A.U. after   14 cycles
 SCF Done:  E(RB3LYP) =  -696.958437966     A.U. after   12 cycles
 SCF Done:  E(RB3LYP) =  -696.958688050     A.U. after   12 cycles
 SCF Done:  E(RB3LYP) =  -696.958891564     A.U. after   11 cycles
 SCF Done:  E(RB3LYP) =  -696.959055901     A.U. after   11 cycles
 SCF Done:  E(RB3LYP) =  -696.959349384     A.U. after   10 cycles
 SCF Done:  E(RB3LYP) =  -696.959468791     A.U. after   11 cycles
 SCF Done:  E(RB3LYP) =  -696.958601186     A.U. after   14 cycles
 SCF Done:  E(RB3LYP) =  -696.959722124     A.U. after   12 cycles
 SCF Done:  E(RB3LYP) =  -696.959398058     A.U. after   12 cycles
 SCF Done:  E(RB3LYP) =  -696.960295085     A.U. after   10 cycles
 SCF Done:  E(RB3LYP) =  -696.960252034     A.U. after   11 cycles
 SCF Done:  E(RB3LYP) =  -696.960328123     A.U. after   10 cycles
 SCF Done:  E(RB3LYP) =  -696.960320700     A.U. after   11 cycles
 SCF Done:  E(RB3LYP) =  -696.960396483     A.U. after   10 cycles
 SCF Done:  E(RB3LYP) =  -696.960415201     A.U. after   10 cycles
 SCF Done:  E(RB3LYP) =  -696.960416358     A.U. after    7 cycles
 SCF Done:  E(RB3LYP) =  -696.960416942     A.U. after    7 cycles
 Optimization completed.
    -- Stationary point found.
 Normal termination of Gaussian 09 at Fri Oct  1 22:49:59 2021.

 ----------------------------------------------------------------------
 #p freq b3lyp/6-31G* volume NMR pop=NPA density=current Geom=AllCheck
 Guess=Read
 ----------------------------------------------------------------------

 CP(C(C)(C)C)C(C)(C)C_conf_0
 ---------------------------
 Redundant internal coordinates taken from checkpoint file:
 C9H21P_c21b_conf_0.chk
 Charge =  0 Multiplicity = 1

 SCF Done:  E(RB3LYP) =  -696.960416942     A.U. after    1 cycles

  1  C    Isotropic =   181.9696   Anisotropy =     8.7376

  2  P    Isotropic =   348.9469   Anisotropy =    71.0819

  3  C    Isotropic =   153.4581   Anisotropy =    16.4093

  4  C    Isotropic =   164.7421   Anisotropy =    28.1095

  5  C    Isotropic =   158.6962   Anisotropy =    39.1151

  6  C    Isotropic =   159.6267   Anisotropy =    38.7059

  7  C    Isotropic =   153.5588   Anisotropy =    16.4249

  8  C    Isotropic =   158.3721   Anisotropy =    42.9280

  9  C    Isotropic =   160.2130   Anisotropy =    32.6000

 10  C    Isotropic =   164.3197   Anisotropy =    31.1311

 11  H    Isotropic =    31.2845   Anisotropy =     9.8017

 12  H    Isotropic =    30.9935   Anisotropy =     6.7203

 13  H    Isotropic =    31.4805   Anisotropy =     9.1832

 14  H    Isotropic =    30.8423   Anisotropy =     6.7028

 15  H    Isotropic =    30.7159   Anisotropy =     6.1907

 16  H    Isotropic =    31.2008   Anisotropy =     9.0431

 17  H    Isotropic =    30.6660   Anisotropy =     6.4731

 18  H    Isotropic =    31.2654   Anisotropy =     9.1050

 19  H    Isotropic =    30.7738   Anisotropy =     8.0998

 20  H    Isotropic =    31.0800   Anisotropy =     7.4281

 21  H    Isotropic =    31.0009   Anisotropy =     8.7101

 22  H    Isotropic =    31.4731   Anisotropy =     9.1083

 23  H    Isotropic =    30.9189   Anisotropy =     8.7829

 24  H    Isotropic =    31.0538   Anisotropy =     7.9768

 25  H    Isotropic =    31.4542   Anisotropy =     9.1164

 26  H    Isotropic =    30.8194   Anisotropy =     7.3410

 27  H    Isotropic =    31.1379   Anisotropy =     8.8187

 28  H    Isotropic =    30.7578   Anisotropy =     6.4356

 29  H    Isotropic =    30.9230   Anisotropy =     6.5701

 30  H    Isotropic =    30.7436   Anisotropy =     6.5919

 31  H    Isotropic =    31.3558   Anisotropy =     9.1039

  Exact polarizability: 138.426   0.128 115.425  -0.083  -0.221 103.372
 Approx polarizability: 186.170  -0.030 170.611  -0.173  -0.826 156.005

                     1                      2                      3
                     A                      A                      A
 Frequencies --    69.7238                81.7025               163.2242
 Red. masses --     2.6832                 2.7158                 3.2521
 Frc consts  --     0.0077                 0.0107                 0.0510
 IR Inten    --     0.0296                 0.1783                 0.0072

                     4                      5                      6
                     A                      A                      A
 Frequencies --   201.4949               215.7935               221.4882
 Red. masses --     1.1975                 1.6065                 1.4496
 Frc consts  --     0.0286                 0.0441                 0.0419
 IR Inten    --     0.0593                 0.2513                 0.0232

                     7                      8                      9
                     A                      A                      A
 Frequencies --   229.5639               240.2044               251.1310
 Red. masses --     1.8641                 1.3968                 1.5281
 Frc consts  --     0.0579                 0.0475                 0.0568
 IR Inten    --     0.0428                 0.0334                 0.0323

                    10                     11                     12
                     A                      A                      A
 Frequencies --   262.0593               271.9841               285.8769
 Red. masses --     1.3885                 2.0488                 1.3461
 Frc consts  --     0.0562                 0.0893                 0.0648
 IR Inten    --     0.0599                 0.0831                 0.0211

                    13                     14                     15
                     A                      A                      A
 Frequencies --   301.8959               306.1014               315.1057
 Red. masses --     1.1042                 1.2012                 1.3577
 Frc consts  --     0.0593                 0.0663                 0.0794
 IR Inten    --     0.0155                 0.0172                 0.1659

                    16                     17                     18
                     A                      A                      A
 Frequencies --   334.4072               352.8934               384.5905
 Red. masses --     2.4843                 2.5040                 2.5738
 Frc consts  --     0.1637                 0.1837                 0.2243
 IR Inten    --     0.1233                 0.1135                 0.5505

                    19                     20                     21
                     A                      A                      A
 Frequencies --   397.3777               406.6023               416.9669
 Red. masses --     2.2197                 2.5948                 2.5511
 Frc consts  --     0.2065                 0.2528                 0.2613
 IR Inten    --     0.0222                 1.7136                 0.0949

                    22                     23                     24
                     A                      A                      A
 Frequencies --   457.3661               553.6107               581.1158
 Red. masses --     2.9200                 2.8046                 3.2399
 Frc consts  --     0.3599                 0.5064                 0.6446
 IR Inten    --     1.0636                 0.4462                 3.1716

                    25                     26                     27
                     A                      A                      A
 Frequencies --   688.9903               814.3725               815.8365
 Red. masses --     5.3157                 2.8970                 2.8754
 Frc consts  --     1.4867                 1.1320                 1.1276
 IR Inten    --     8.8748                 8.2916                 5.0482

                    28                     29                     30
                     A                      A                      A
 Frequencies --   897.7911               907.4509               942.6590
 Red. masses --     1.3329                 1.3157                 1.8470
 Frc consts  --     0.6330                 0.6383                 0.9670
 IR Inten    --    21.2656                14.2947                 1.0864

                    31                     32                     33
                     A                      A                      A
 Frequencies --   945.9051               951.1830               953.9079
 Red. masses --     1.7908                 1.7070                 1.6744
 Frc consts  --     0.9440                 0.9099                 0.8977
 IR Inten    --     2.5286                 1.5875                 1.4480

                    34                     35                     36
                     A                      A                      A
 Frequencies --   972.8738               975.5759              1039.1524
 Red. masses --     1.2002                 1.1951                 1.3709
 Frc consts  --     0.6693                 0.6702                 0.8722
 IR Inten    --     0.0742                 0.0141                 0.6284

                    37                     38                     39
                     A                      A                      A
 Frequencies --  1050.2154              1053.2535              1054.6320
 Red. masses --     1.3834                 1.3707                 1.3806
 Frc consts  --     0.8990                 0.8959                 0.9048
 IR Inten    --     3.3419                 3.1069                 3.3437

                    40                     41                     42
                     A                      A                      A
 Frequencies --  1214.0857              1219.6681              1223.5603
 Red. masses --     2.0628                 2.0296                 2.3647
 Frc consts  --     1.7914                 1.7789                 2.0858
 IR Inten    --    32.0970                 4.9325                 3.2028

                    43                     44                     45
                     A                      A                      A
 Frequencies --  1234.8514              1240.9004              1245.1264
 Red. masses --     2.5304                 2.5997                 2.6360
 Frc consts  --     2.2734                 2.3586                 2.4078
 IR Inten    --     2.3718                 0.5318                 0.9496

                    46                     47                     48
                     A                      A                      A
 Frequencies --  1353.7468              1422.4304              1426.8796
 Red. masses --     1.1999                 1.2128                 1.2193
 Frc consts  --     1.2956                 1.4458                 1.4626
 IR Inten    --     3.6252                 1.2264                 0.1207

                    49                     50                     51
                     A                      A                      A
 Frequencies --  1427.3032              1429.7881              1453.8478
 Red. masses --     1.2110                 1.2158                 1.2101
 Frc consts  --     1.4535                 1.4644                 1.5070
 IR Inten    --     6.0974                 9.4167                 6.2635

                    52                     53                     54
                     A                      A                      A
 Frequencies --  1460.9961              1498.2082              1502.1236
 Red. masses --     1.2095                 1.0519                 1.0521
 Frc consts  --     1.5210                 1.3912                 1.3986
 IR Inten    --     0.3024                 2.7408                 6.7783

                    55                     56                     57
                     A                      A                      A
 Frequencies --  1511.2772              1512.8644              1515.7456
 Red. masses --     1.0491                 1.0485                 1.0477
 Frc consts  --     1.4117                 1.4139                 1.4183
 IR Inten    --     0.2691                 3.9890                 1.1198

                    58                     59                     60
                     A                      A                      A
 Frequencies --  1518.0003              1520.0533              1522.2555
 Red. masses --     1.0461                 1.0472                 1.0473
 Frc consts  --     1.4203                 1.4256                 1.4298
 IR Inten    --     0.8415                 2.6234                 0.1384

                    61                     62                     63
                     A                      A                      A
 Frequencies --  1531.9502              1535.1932              1540.2040
 Red. masses --     1.0497                 1.0495                 1.0503
 Frc consts  --     1.4515                 1.4574                 1.4680
 IR Inten    --     4.7641                 2.7749                 4.9408

                    64                     65                     66
                     A                      A                      A
 Frequencies --  1543.1015              1547.0212              1550.0965
 Red. masses --     1.0487                 1.0502                 1.0490
 Frc consts  --     1.4713                 1.4809                 1.4850
 IR Inten    --     8.1643                13.7226                 4.4790

                    67                     68                     69
                     A                      A                      A
 Frequencies --  3028.5850              3031.2403              3031.6793
 Red. masses --     1.0434                 1.0398                 1.0443
 Frc consts  --     5.6387                 5.6291                 5.6551
 IR Inten    --    23.8473                20.9456                16.8367

                    70                     71                     72
                     A                      A                      A
 Frequencies --  3034.3003              3039.0449              3041.4967
 Red. masses --     1.0394                 1.0428                 1.0422
 Frc consts  --     5.6382                 5.6742                 5.6805
 IR Inten    --    19.2510               110.8455                32.4574

                    73                     74                     75
                     A                      A                      A
 Frequencies --  3053.2533              3091.4462              3092.7466
 Red. masses --     1.0358                 1.0929                 1.0973
 Frc consts  --     5.6892                 6.1538                 6.1842
 IR Inten    --    12.4524                19.3596                 6.2121

                    76                     77                     78
                     A                      A                      A
 Frequencies --  3095.1705              3096.4267              3104.4313
 Red. masses --     1.0978                 1.0962                 1.0939
 Frc consts  --     6.1967                 6.1922                 6.2117
 IR Inten    --    20.8642                55.6145                43.1204

                    79                     80                     81
                     A                      A                      A
 Frequencies --  3105.2085              3120.0021              3121.0795
 Red. masses --     1.0903                 1.1022                 1.1018
 Frc consts  --     6.1943                 6.3212                 6.3233
 IR Inten    --    34.9807                10.6674                 5.3955

                    82                     83                     84
                     A                      A                      A
 Frequencies --  3122.6072              3125.5769              3129.4563
 Red. masses --     1.1012                 1.1017                 1.1015
 Frc consts  --     6.3264                 6.3411                 6.3558
 IR Inten    --    63.4029                19.7969                14.3202

                    85                     86                     87
                     A                      A                      A
 Frequencies --  3138.4048              3141.7294              3147.5779
 Red. masses --     1.0992                 1.1007                 1.0987
 Frc consts  --     6.3789                 6.4009                 6.4132
 IR Inten    --    21.3368                13.9233                26.4809

 - Thermochemistry -
 -------------------
 Temperature   298.150 Kelvin.  Pressure   1.00000 Atm.
 Atom     1 has atomic number  6 and mass  12.00000

 Molecular mass:   160.13809 amu.
 Principal axes and moments of inertia in atomic units:
                           1         2         3
     Eigenvalues --  1169.425792177.668202462.32838
           X            1.00000  -0.00031  -0.00011
           Y            0.00031   0.99928   0.03788
           Z            0.00010  -0.03788   0.99928
 This molecule is an asymmetric top.
 Rotational symmetry number  1.
 Warning -- assumption of classical behavior for rotation
           may cause significant error
 Rotational temperatures (Kelvin)      0.07407     0.03977     0.03518
 Rotational constants (GHZ):           1.54327     0.82875     0.73294
 Zero-point vibrational energy     747419.7 (Joules/Mol)
                                  178.63760 (Kcal/Mol)
 Warning -- explicit consideration of  24 degrees of freedom as
           vibrations may cause significant error
 Vibrational temperatures:    100.32   117.55   234.84   289.91   310.48
          (Kelvin)            318.67   330.29   345.60   361.32   377.04
                              391.32   411.31   434.36   440.41   453.37
                              481.14   507.73   553.34   571.74   585.01
                              599.92   658.05   796.52   836.10   991.30
                             1171.70  1173.81  1291.72  1305.62  1356.27
                             1360.94  1368.54  1372.46  1399.75  1403.63
                             1495.11  1511.02  1515.40  1517.38  1746.80
                             1754.83  1760.43  1776.67  1785.38  1791.46
                             1947.74  2046.56  2052.96  2053.57  2057.14
                             2091.76  2102.04  2155.58  2161.22  2174.39
                             2176.67  2180.82  2184.06  2187.01  2190.18
                             2204.13  2208.80  2216.01  2220.18  2225.82
                             2230.24  4357.45  4361.27  4361.90  4365.68
                             4372.50  4376.03  4392.94  4447.90  4449.77
                             4453.25  4455.06  4466.58  4467.70  4488.98
                             4490.53  4492.73  4497.00  4502.58  4515.46
                             4520.24  4528.66

 Zero-point correction=                           0.284677 (Hartree/Particle)
 Thermal correction to Energy=                    0.298954
 Thermal correction to Enthalpy=                  0.299899
 Thermal correction to Gibbs Free Energy=         0.246376
 Sum of electronic and zero-point Energies=           -696.675740
 Sum of electronic and thermal Energies=              -696.661463
 Sum of electronic and thermal Enthalpies=            -696.660518
 Sum of electronic and thermal Free Energies=         -696.714041

                     E (Thermal)             CV                S
                      KCal/Mol        Cal/Mol-Kelvin    Cal/Mol-Kelvin
 Total                  187.597             55.045            112.648
 Electronic               0.000              0.000              0.000
 Translational            0.889              2.981             41.122
 Rotational               0.889              2.981             30.218
 Vibrational            185.819             49.084             41.309
 Vibration     1          0.598              1.969              4.161
 Vibration     2          0.600              1.962              3.850
 Vibration     3          0.623              1.888              2.512
 Vibration     4          0.638              1.838              2.119
 Vibration     5          0.645              1.817              1.994
 Vibration     6          0.648              1.808              1.947
 Vibration     7          0.652              1.796              1.882
 Vibration     8          0.657              1.779              1.801
 Vibration     9          0.663              1.761              1.723
 Vibration    10          0.669              1.742              1.648
 Vibration    11          0.675              1.725              1.584
 Vibration    12          0.684              1.700              1.498
 Vibration    13          0.694              1.670              1.406
 Vibration    14          0.696              1.662              1.383
 Vibration    15          0.702              1.645              1.335
 Vibration    16          0.716              1.607              1.239
 Vibration    17          0.729              1.569              1.153
 Vibration    18          0.754              1.503              1.021
 Vibration    19          0.764              1.476              0.972
 Vibration    20          0.771              1.456              0.939
 Vibration    21          0.780              1.433              0.902
 Vibration    22          0.815              1.345              0.774
 Vibration    23          0.909              1.132              0.537
 Vibration    24          0.938              1.072              0.483

 Optimization completed.
    -- Stationary point found.
 Normal termination of Gaussian 09 at Sat Oct  2 00:09:19 2021.
 Gaussian 09:  AM64L-G09RevA.02 11-Jun-2009

 ----------------------------------------------------------------------
 #p TD(NStates=10, Root=1) b3lyp/6-31G* volume pop=NPA density=current
 Geom=AllCheck Guess=Read
 ----------------------------------------------------------------------

 CP(C(C)(C)C)C(C)(C)C_conf_0
 ---------------------------
 Redundant internal coordinates taken from checkpoint file:
 C9H21P_c21b_conf_0.chk
 Charge =  0 Multiplicity = 1

                         Standard orientation:
 ---------------------------------------------------------------------
 Center     Atomic      Atomic             Coordinates (Angstroms)
 Number     Number       Type             X           Y           Z
 ---------------------------------------------------------------------
      1          6           0       -0.021019    2.206663    0.115995
      2         15           0        0.003136    0.539948   -0.735306
      3          6           0        1.585558   -0.252780    0.019548
      4          6           0        1.571264   -0.535692    1.530782
      5          6           0        1.878396   -1.558945   -0.749549
      6          6           0        2.732669    0.736282   -0.289667
      7          6           0       -1.583098   -0.257507    0.015032
      8          6           0       -2.738396    0.325860   -0.832024
      9          6           0       -1.561428   -1.782326   -0.202810
     10          6           0       -1.864258    0.044350    1.498580
     11          1           0        0.746399    2.848431   -0.325752
     12          1           0        0.137772    2.166270    1.199207
     13          1           0       -0.987196    2.686047   -0.071185
     14          1           0        0.862708   -1.326851    1.795084
     15          1           0        1.321350    0.355538    2.117075
     16          1           0        2.566246   -0.871143    1.856891
     17          1           0        1.119748   -2.326825   -0.574070
     18          1           0        2.844655   -1.971332   -0.427780
     19          1           0        1.931829   -1.380626   -1.829284
     20          1           0        2.669588    1.646037    0.316067
     21          1           0        2.744657    1.029394   -1.346489
     22          1           0        3.697083    0.260371   -0.066754
     23          1           0       -2.621096    0.083827   -1.893645
     24          1           0       -2.808448    1.416221   -0.743123
     25          1           0       -3.696157   -0.091051   -0.491316
     26          1           0       -1.320785   -2.042481   -1.240228
     27          1           0       -2.551082   -2.202630    0.023197
     28          1           0       -0.840356   -2.283285    0.451096
     29          1           0       -1.954740    1.118748    1.690039
     30          1           0       -1.090304   -0.351805    2.161000
     31          1           0       -2.817036   -0.417506    1.794236
 ---------------------------------------------------------------------

 SCF Done:  E(RB3LYP) =  -696.960416942     A.U. after    1 cycles

 Excitation energies and oscillator strengths:

 Excited State   1:      Singlet-A      6.3046 eV  196.66 nm  f=0.0535  <S**2>=0.000
      45 -> 46         0.69828
 This state for optimization and/or second-order correction.
 Total Energy, E(TD-HF/TD-KS) =  -696.728727341
 Copying the excited state density for this state as the 1-particle RhoCI density.

 Excited State   2:      Singlet-A      6.6581 eV  186.22 nm  f=0.0091  <S**2>=0.000
      45 -> 47         0.70217

 Excited State   3:      Singlet-A      6.8284 eV  181.57 nm  f=0.1129  <S**2>=0.000
      44 -> 46        -0.13479
      45 -> 48         0.68423

 Excited State   4:      Singlet-A      7.5154 eV  164.97 nm  f=0.0152  <S**2>=0.000
      45 -> 49         0.70195

 Excited State   5:      Singlet-A      7.7720 eV  159.53 nm  f=0.0020  <S**2>=0.000
      45 -> 50         0.69152
      45 -> 52        -0.10081

 Excited State   6:      Singlet-A      8.0185 eV  154.62 nm  f=0.0924  <S**2>=0.000
      44 -> 46         0.60162
      45 -> 51         0.26304
      45 -> 52         0.17422

 Excited State   7:      Singlet-A      8.0366 eV  154.28 nm  f=0.0247  <S**2>=0.000
      44 -> 46        -0.26637
      45 -> 51         0.63830

 Excited State   8:      Singlet-A      8.1587 eV  151.97 nm  f=0.0363  <S**2>=0.000
      44 -> 46        -0.10950
      45 -> 51        -0.10526
      45 -> 52         0.65614
      45 -> 53         0.15785

 Excited State   9:      Singlet-A      8.3396 eV  148.67 nm  f=0.0465  <S**2>=0.000
      44 -> 46         0.10050
      45 -> 52        -0.13446
      45 -> 53         0.65709
      45 -> 54         0.13855

 Excited State  10:      Singlet-A      8.4556 eV  146.63 nm  f=0.0183  <S**2>=0.000
      44 -> 47         0.69232

 The electronic state is 1-A.
 Alpha  occ. eigenvalues --  -77.06252 -10.19930 -10.19921 -10.17622 -10.17455
 Alpha  occ. eigenvalues --  -10.17430 -10.17391 -10.17233 -10.17192 -10.17040
 Alpha  occ. eigenvalues --   -6.52996  -4.69258  -4.69236  -4.68737  -0.81155
 Alpha  occ. eigenvalues --   -0.79575  -0.70949  -0.68531  -0.68120  -0.67788
 Alpha  occ. eigenvalues --   -0.67700  -0.59591  -0.54228  -0.50034  -0.45805
 Alpha  occ. eigenvalues --   -0.44131  -0.43648  -0.43386  -0.42484  -0.42248
 Alpha  occ. eigenvalues --   -0.40328  -0.39448  -0.38898  -0.37890  -0.37585
 Alpha  occ. eigenvalues --   -0.37408  -0.36268  -0.36046  -0.33759  -0.33280
 Alpha  occ. eigenvalues --   -0.32488  -0.32233  -0.29770  -0.27393  -0.20711
 Alpha virt. eigenvalues --    0.05659   0.06849   0.07281   0.10295   0.11066
 Alpha virt. eigenvalues --    0.12042   0.12453   0.13405   0.13920   0.15266
 Alpha virt. eigenvalues --    0.15403   0.16186   0.16421   0.17174   0.18369

 Mulliken atomic charges:
              1
     1  C   -0.598710
     2  P    0.302557
     3  C   -0.044002
     4  C   -0.453632
     5  C   -0.427903
     6  C   -0.439543
     7  C   -0.039015
     8  C   -0.453544
     9  C   -0.411859
    10  C   -0.452786
    11  H    0.162564
    12  H    0.145084
    13  H    0.154032
    14  H    0.154294
    15  H    0.152379
    16  H    0.160867
    17  H    0.149156
    18  H    0.126572
    19  H    0.146444
    20  H    0.145055
    21  H    0.149420
    22  H    0.117415
    23  H    0.147973
    24  H    0.143469
    25  H    0.122418
    26  H    0.132428
    27  H    0.126878
    28  H    0.134130
    29  H    0.149818
    30  H    0.147482
    31  H    0.150556
 Sum of Mulliken atomic charges =  -0.00000

 Dipole moment (field-independent basis, Debye):
    X=              0.2043    Y=              0.1204    Z=              0.9674  Tot=              0.9961
 Quadrupole moment (field-independent basis, Debye-Ang):
   XX=            -76.0239   YY=            -76.4183   ZZ=            -75.4150
   XY=             -0.5725   XZ=              0.1388   YZ=             -0.6475

 Summary of Natural Population Analysis:

                                       Natural Population
                Natural  -----------------------------------------------
    Atom  No    Charge         Core      Valence    Rydberg      Total
 -----------------------------------------------------------------------
      C    1   -1.10236      1.99944     5.08158    0.02134     7.10236
      P    2    1.00230      9.99761     3.90417    0.09592    13.99770
      C    3   -0.33471      1.99911     4.31299    0.02261     6.33471
      C    4   -0.67629      1.99932     4.66511    0.01187     6.67629
      C    5   -0.67678      1.99936     4.66393    0.01349     6.67678
      C    6   -0.68237      1.99937     4.67098    0.01201     6.68237
      C    7   -0.35077      1.99912     4.32979    0.02186     6.35077
      C    8   -0.68168      1.99938     4.66997    0.01233     6.68168
      C    9   -0.68037      1.99935     4.66815    0.01286     6.68037
      C   10   -0.67520      1.99933     4.66377    0.01210     6.67520
      H   11    0.25325      0.00000     0.74484    0.00191     0.74675
      H   12    0.23038      0.00000     0.76266    0.00696     0.76962
      H   13    0.24414      0.00000     0.75337    0.00249     0.75586
      H   14    0.23059      0.00000     0.76668    0.00273     0.76941
      H   15    0.23378      0.00000     0.76441    0.00182     0.76622
      H   16    0.24836      0.00000     0.75013    0.00151     0.75164
      H   17    0.23504      0.00000     0.76223    0.00273     0.76496
      H   18    0.22124      0.00000     0.77622    0.00254     0.77876
      H   19    0.23583      0.00000     0.76296    0.00121     0.76417
      H   20    0.23078      0.00000     0.76773    0.00149     0.76922
      H   21    0.23497      0.00000     0.76372    0.00132     0.76503
      H   22    0.20942      0.00000     0.78446    0.00612     0.79058
      H   23    0.23065      0.00000     0.76725    0.00210     0.76935
      H   24    0.22842      0.00000     0.77044    0.00114     0.77158
      H   25    0.21369      0.00000     0.78069    0.00562     0.78631
      H   26    0.23097      0.00000     0.76259    0.00645     0.76903
      H   27    0.22358      0.00000     0.77389    0.00253     0.77642
      H   28    0.22035      0.00000     0.77682    0.00282     0.77965
      H   29    0.23469      0.00000     0.76368    0.00163     0.76531
      H   30    0.22973      0.00000     0.76866    0.00161     0.77027
      H   31    0.23839      0.00000     0.75911    0.00251     0.76161
 =======================================================================
   * Total *   -0.00000     27.99139    61.71297    0.29563    90.00000

 Normal termination of Gaussian 09 at Sat Oct  2 05:49:34 2021.
