 Gaussian 09, Revision A.02,

 -----------------------------------
 #p opt b3lyp/6-31G* scf=(xqc,tight)
 -----------------------------------

 -------------------------
 CC(P(C(C)C)C(C)C)C_conf_0
 -------------------------
 Symbolic Z-matrix:
 Charge =  0 Multiplicity = 1

 SCF Done:  E(RB3LYP) =  -696.953384158     A.U. after   14 cycles
 SCF Done:  E(RB3LYP) =  -696.958493404     A.U. after   12 cycles
 SCF Done:  E(RB3LYP) =  -696.959765996     A.U. after   11 cycles
 SCF Done:  E(RB3LYP) =  -696.960745182     A.U. after   11 cycles
 SCF Done:  E(RB3LYP) =  -696.960823472     A.U. after   11 cycles
 SCF Done:  E(RB3LYP) =  -696.960872515     A.U. after   11 cycles
 SCF Done:  E(RB3LYP) =  -696.960909579     A.U. after   10 cycles
 SCF Done:  E(RB3LYP) =  -696.960912496     A.U. after    8 cycles
 SCF Done:  E(RB3LYP) =  -696.960913274     A.U. after    7 cycles
 SCF Done:  E(RB3LYP) =  -696.960914044     A.U. after    7 cycles
 SCF Done:  E(RB3LYP) =  -696.960914633     A.U. after    6 cycles
 SCF Done:  E(RB3LYP) =  -696.960915088     A.U. after    6 cycles
 SCF Done:  E(RB3LYP) =  -696.960915413     A.U. after    6 cycles
 Optimization completed on the basis of negligible forces.
    -- Stationary point found.
 Normal termination of Gaussian 09 at Fri Oct  1 20:19:38 2021.

 ----------------------------------------------------------------------
 #p freq b3lyp/6-31G* volume NMR pop=NPA density=current Geom=AllCheck
 Guess=Read
 ----------------------------------------------------------------------

 CC(P(C(C)C)C(C)C)C_conf_0
 -------------------------
 Redundant internal coordinates taken from checkpoint file:
 C9H21P_7bb6_conf_0.chk
 Charge =  0 Multiplicity = 1

 SCF Done:  E(RB3LYP) =  -696.960915413     A.U. after    1 cycles

  1  C    Isotropic =   169.3593   Anisotropy =    19.7734

  2  C    Isotropic =   158.7921   Anisotropy =    16.2376

  3  P    Isotropic =   345.9905   Anisotropy =    35.7274

  4  C    Isotropic =   163.1101   Anisotropy =    10.0093

  5  C    Isotropic =   169.5746   Anisotropy =    29.1626

  6  C    Isotropic =   169.2977   Anisotropy =    28.6216

  7  C    Isotropic =   158.8319   Anisotropy =    15.4516

  8  C    Isotropic =   170.3429   Anisotropy =    21.5837

  9  C    Isotropic =   167.4392   Anisotropy =    27.0357

 10  C    Isotropic =   165.8851   Anisotropy =    30.8349

 11  H    Isotropic =    30.6417   Anisotropy =     5.4779

 12  H    Isotropic =    31.0426   Anisotropy =     5.9447

 13  H    Isotropic =    31.0030   Anisotropy =    10.3505

 14  H    Isotropic =    30.2812   Anisotropy =     6.6758

 15  H    Isotropic =    30.0300   Anisotropy =     4.7876

 16  H    Isotropic =    31.1913   Anisotropy =     8.2752

 17  H    Isotropic =    31.0251   Anisotropy =     7.4379

 18  H    Isotropic =    31.0864   Anisotropy =    10.2051

 19  H    Isotropic =    31.1975   Anisotropy =     8.3371

 20  H    Isotropic =    31.1055   Anisotropy =    10.0228

 21  H    Isotropic =    30.9986   Anisotropy =     7.8433

 22  H    Isotropic =    30.1307   Anisotropy =     6.9403

 23  H    Isotropic =    31.0305   Anisotropy =     6.0778

 24  H    Isotropic =    30.6319   Anisotropy =     5.7113

 25  H    Isotropic =    31.1172   Anisotropy =    10.4318

 26  H    Isotropic =    31.0017   Anisotropy =     5.9385

 27  H    Isotropic =    30.8755   Anisotropy =    10.1755

 28  H    Isotropic =    30.7001   Anisotropy =     7.9631

 29  H    Isotropic =    30.9450   Anisotropy =     5.9469

 30  H    Isotropic =    30.6665   Anisotropy =     8.3767

 31  H    Isotropic =    30.9661   Anisotropy =    10.0930

  Exact polarizability: 131.174  -0.269 124.973  -0.782  -0.456 102.385
 Approx polarizability: 175.972  -0.358 175.869  -0.509  -1.307 154.502

                     1                      2                      3
                     A                      A                      A
 Frequencies --    17.6453                53.9636                95.2334
 Red. masses --     2.5317                 2.3895                 2.4246
 Frc consts  --     0.0005                 0.0041                 0.0130
 IR Inten    --     0.0051                 0.0490                 0.0861

                     4                      5                      6
                     A                      A                      A
 Frequencies --   144.1687               157.8884               170.2705
 Red. masses --     3.0118                 2.9898                 2.6576
 Frc consts  --     0.0369                 0.0439                 0.0454
 IR Inten    --     0.0154                 0.0283                 0.0677

                     7                      8                      9
                     A                      A                      A
 Frequencies --   211.3993               225.5863               231.0373
 Red. masses --     1.1518                 1.1439                 1.1004
 Frc consts  --     0.0303                 0.0343                 0.0346
 IR Inten    --     0.0884                 0.0562                 0.0360

                    10                     11                     12
                     A                      A                      A
 Frequencies --   238.8465               262.5248               268.4094
 Red. masses --     1.2614                 1.5017                 1.4594
 Frc consts  --     0.0424                 0.0610                 0.0619
 IR Inten    --     0.2136                 0.1021                 0.1156

                    13                     14                     15
                     A                      A                      A
 Frequencies --   276.2119               291.8652               293.8413
 Red. masses --     1.1765                 2.0144                 2.2959
 Frc consts  --     0.0529                 0.1011                 0.1168
 IR Inten    --     0.0249                 0.0238                 0.0488

                    16                     17                     18
                     A                      A                      A
 Frequencies --   338.4049               365.8792               371.3514
 Red. masses --     2.6799                 2.7976                 2.6909
 Frc consts  --     0.1808                 0.2207                 0.2186
 IR Inten    --     0.3336                 0.2363                 0.0752

                    19                     20                     21
                     A                      A                      A
 Frequencies --   401.7108               429.6299               510.1452
 Red. masses --     2.2720                 2.3351                 3.4218
 Frc consts  --     0.2160                 0.2539                 0.5247
 IR Inten    --     0.6328                 0.7642                 4.8279

                    22                     23                     24
                     A                      A                      A
 Frequencies --   548.8128               630.2242               648.4024
 Red. masses --     2.9340                 4.4059                 3.5088
 Frc consts  --     0.5207                 1.0310                 0.8692
 IR Inten    --     0.0751                11.6818                 9.1225

                    25                     26                     27
                     A                      A                      A
 Frequencies --   891.6891               895.2446               896.0123
 Red. masses --     2.5810                 2.4952                 2.6053
 Frc consts  --     1.2091                 1.1783                 1.2323
 IR Inten    --    10.9115                 3.1186                 3.4375

                    28                     29                     30
                     A                      A                      A
 Frequencies --   936.2842               940.0087               946.8486
 Red. masses --     1.1623                 1.1690                 1.1633
 Frc consts  --     0.6003                 0.6086                 0.6145
 IR Inten    --     1.6115                 2.1355                 2.2448

                    31                     32                     33
                     A                      A                      A
 Frequencies --   978.5107               980.7407               986.3591
 Red. masses --     1.4351                 1.4333                 1.4401
 Frc consts  --     0.8096                 0.8123                 0.8255
 IR Inten    --     0.0405                 0.1008                 0.0266

                    34                     35                     36
                     A                      A                      A
 Frequencies --  1047.4046              1058.9692              1092.4208
 Red. masses --     1.2263                 1.2788                 1.3790
 Frc consts  --     0.7926                 0.8449                 0.9696
 IR Inten    --     5.8153                 5.1476                17.4680

                    37                     38                     39
                     A                      A                      A
 Frequencies --  1099.1801              1124.7689              1134.3279
 Red. masses --     2.3209                 2.3672                 2.3995
 Frc consts  --     1.6521                 1.7644                 1.8190
 IR Inten    --     1.7919                 1.5928                 2.8988

                    40                     41                     42
                     A                      A                      A
 Frequencies --  1193.2995              1195.8492              1199.6881
 Red. masses --     1.8723                 1.8940                 1.8828
 Frc consts  --     1.5709                 1.5958                 1.5965
 IR Inten    --     5.7865                 4.6142                 1.0371

                    43                     44                     45
                     A                      A                      A
 Frequencies --  1284.2437              1290.7960              1320.0904
 Red. masses --     1.4097                 1.3594                 1.2948
 Frc consts  --     1.3699                 1.3345                 1.3294
 IR Inten    --    12.5823                10.6347                 0.2746

                    46                     47                     48
                     A                      A                      A
 Frequencies --  1348.1631              1355.1129              1360.1149
 Red. masses --     1.3022                 1.2968                 1.2921
 Frc consts  --     1.3945                 1.4031                 1.4083
 IR Inten    --     0.3723                 1.1399                 0.1226

                    49                     50                     51
                     A                      A                      A
 Frequencies --  1424.0363              1429.9107              1431.8550
 Red. masses --     1.2204                 1.2210                 1.2234
 Frc consts  --     1.4582                 1.4709                 1.4778
 IR Inten    --     0.7759                 4.6381                 3.0962

                    52                     53                     54
                     A                      A                      A
 Frequencies --  1443.7830              1449.3848              1452.3494
 Red. masses --     1.2143                 1.2113                 1.2126
 Frc consts  --     1.4914                 1.4993                 1.5070
 IR Inten    --     1.0171                 4.1172                 1.3220

                    55                     56                     57
                     A                      A                      A
 Frequencies --  1511.4381              1519.2115              1519.5472
 Red. masses --     1.0467                 1.0438                 1.0447
 Frc consts  --     1.4088                 1.4194                 1.4213
 IR Inten    --     0.3719                 3.5164                 0.6166

                    58                     59                     60
                     A                      A                      A
 Frequencies --  1520.9275              1525.1086              1526.7460
 Red. masses --     1.0488                 1.0408                 1.0468
 Frc consts  --     1.4294                 1.4263                 1.4376
 IR Inten    --     0.8748                 1.8517                 7.7935

                    61                     62                     63
                     A                      A                      A
 Frequencies --  1530.9769              1534.7640              1536.7769
 Red. masses --     1.0465                 1.0476                 1.0452
 Frc consts  --     1.4451                 1.4539                 1.4544
 IR Inten    --     1.2212                 3.8252                12.1708

                    64                     65                     66
                     A                      A                      A
 Frequencies --  1539.0547              1543.3610              1545.7247
 Red. masses --     1.0448                 1.0424                 1.0459
 Frc consts  --     1.4581                 1.4629                 1.4723
 IR Inten    --     3.6277                 7.5421                 2.2028

                    67                     68                     69
                     A                      A                      A
 Frequencies --  3016.2440              3027.2888              3034.1154
 Red. masses --     1.0825                 1.0797                 1.0745
 Frc consts  --     5.8027                 5.8299                 5.8283
 IR Inten    --    10.0746                 6.3020                 2.0477

                    70                     71                     72
                     A                      A                      A
 Frequencies --  3035.8848              3038.7205              3038.9053
 Red. masses --     1.0441                 1.0407                 1.0419
 Frc consts  --     5.6697                 5.6617                 5.6690
 IR Inten    --    19.5514                30.1835                26.1825

                    73                     74                     75
                     A                      A                      A
 Frequencies --  3041.7153              3042.7370              3045.1271
 Red. masses --     1.0412                 1.0386                 1.0416
 Frc consts  --     5.6758                 5.6655                 5.6905
 IR Inten    --    58.4789                98.3371                12.6187

                    76                     77                     78
                     A                      A                      A
 Frequencies --  3095.9025              3097.2760              3099.6047
 Red. masses --     1.0961                 1.1012                 1.0994
 Frc consts  --     6.1898                 6.2243                 6.2235
 IR Inten    --    12.4195                 0.6604                85.1050

                    79                     80                     81
                     A                      A                      A
 Frequencies --  3102.1821              3105.2352              3106.6576
 Red. masses --     1.1003                 1.0938                 1.0951
 Frc consts  --     6.2386                 6.2141                 6.2269
 IR Inten    --    50.8586                41.7652                 7.7503

                    82                     83                     84
                     A                      A                      A
 Frequencies --  3118.5930              3121.7369              3123.2099
 Red. masses --     1.1023                 1.1003                 1.0999
 Frc consts  --     6.3162                 6.3178                 6.3215
 IR Inten    --     9.8708                25.9797                39.9147

                    85                     86                     87
                     A                      A                      A
 Frequencies --  3124.7680              3127.3533              3139.2098
 Red. masses --     1.1020                 1.1017                 1.1002
 Frc consts  --     6.3398                 6.3487                 6.3882
 IR Inten    --    23.5736                30.1321                35.4748

 - Thermochemistry -
 -------------------
 Temperature   298.150 Kelvin.  Pressure   1.00000 Atm.
 Atom     1 has atomic number  6 and mass  12.00000

 Molecular mass:   160.13809 amu.
 Principal axes and moments of inertia in atomic units:
                           1         2         3
     Eigenvalues --  1544.089201946.936702668.53192
           X            1.00000  -0.00095  -0.00240
           Y            0.00095   1.00000   0.00080
           Z            0.00240  -0.00080   1.00000
 This molecule is an asymmetric top.
 Rotational symmetry number  1.
 Warning -- assumption of classical behavior for rotation
           may cause significant error
 Rotational temperatures (Kelvin)      0.05609     0.04449     0.03246
 Rotational constants (GHZ):           1.16881     0.92696     0.67630
 Zero-point vibrational energy     750100.4 (Joules/Mol)
                                  179.27831 (Kcal/Mol)
 Warning -- explicit consideration of  22 degrees of freedom as
           vibrations may cause significant error
 Vibrational temperatures:     25.39    77.64   137.02   207.43   227.17
          (Kelvin)            244.98   304.16   324.57   332.41   343.65
                              377.71   386.18   397.41   419.93   422.77
                              486.89   526.42   534.29   577.97   618.14
                              733.98   789.62   906.75   932.91  1282.94
                             1288.06  1289.16  1347.10  1352.46  1362.30
                             1407.86  1411.07  1419.15  1506.98  1523.62
                             1571.75  1581.47  1618.29  1632.04  1716.89
                             1720.56  1726.08  1847.74  1857.17  1899.31
                             1939.70  1949.70  1956.90  2048.87  2057.32
                             2060.12  2077.28  2085.34  2089.60  2174.62
                             2185.80  2186.29  2188.27  2194.29  2196.64
                             2202.73  2208.18  2211.08  2214.35  2220.55
                             2223.95  4339.70  4355.59  4365.41  4367.96
                             4372.04  4372.30  4376.34  4377.81  4381.25
                             4454.31  4456.28  4459.63  4463.34  4467.74
                             4469.78  4486.95  4491.48  4493.60  4495.84
                             4499.56  4516.62

 Zero-point correction=                           0.285698 (Hartree/Particle)
 Thermal correction to Energy=                    0.300330
 Thermal correction to Enthalpy=                  0.301274
 Thermal correction to Gibbs Free Energy=         0.244774
 Sum of electronic and zero-point Energies=           -696.675217
 Sum of electronic and thermal Energies=              -696.660585
 Sum of electronic and thermal Enthalpies=            -696.659641
 Sum of electronic and thermal Free Energies=         -696.716142

                     E (Thermal)             CV                S
                      KCal/Mol        Cal/Mol-Kelvin    Cal/Mol-Kelvin
 Total                  188.460             53.726            118.915
 Electronic               0.000              0.000              0.000
 Translational            0.889              2.981             41.122
 Rotational               0.889              2.981             30.463
 Vibrational            186.683             47.764             47.331
 Vibration     1          0.593              1.986              6.883
 Vibration     2          0.596              1.976              4.667
 Vibration     3          0.603              1.953              3.550
 Vibration     4          0.616              1.909              2.748
 Vibration     5          0.621              1.894              2.575
 Vibration     6          0.625              1.879              2.433
 Vibration     7          0.643              1.823              2.032
 Vibration     8          0.650              1.802              1.914
 Vibration     9          0.653              1.794              1.871
 Vibration    10          0.657              1.781              1.811
 Vibration    11          0.670              1.741              1.645
 Vibration    12          0.673              1.731              1.606
 Vibration    13          0.678              1.717              1.557
 Vibration    14          0.687              1.689              1.463
 Vibration    15          0.689              1.685              1.452
 Vibration    16          0.719              1.599              1.220
 Vibration    17          0.739              1.542              1.097
 Vibration    18          0.743              1.531              1.074
 Vibration    19          0.767              1.466              0.956
 Vibration    20          0.791              1.406              0.860
 Vibration    21          0.865              1.228              0.633
 Vibration    22          0.904              1.142              0.547

 Optimization completed on the basis of negligible forces.
    -- Stationary point found.
 Normal termination of Gaussian 09 at Fri Oct  1 21:25:47 2021.
 Gaussian 09:  AM64L-G09RevA.02 11-Jun-2009

 ----------------------------------------------------------------------
 #p TD(NStates=10, Root=1) b3lyp/6-31G* volume pop=NPA density=current
 Geom=AllCheck Guess=Read
 ----------------------------------------------------------------------

 CC(P(C(C)C)C(C)C)C_conf_0
 -------------------------
 Redundant internal coordinates taken from checkpoint file:
 C9H21P_7bb6_conf_0.chk
 Charge =  0 Multiplicity = 1

                         Standard orientation:
 ---------------------------------------------------------------------
 Center     Atomic      Atomic             Coordinates (Angstroms)
 Number     Number       Type             X           Y           Z
 ---------------------------------------------------------------------
      1          6           0        1.143791   -1.393323    1.566106
      2          6           0        0.840217   -1.476211    0.062789
      3         15           0       -0.144015   -0.075347   -0.762157
      4          6           0       -1.783936   -0.137179    0.187649
      5          6           0       -2.689451    1.022362   -0.263107
      6          6           0       -2.500169   -1.478195   -0.047167
      7          6           0        0.570539    1.593809   -0.189133
      8          6           0        0.473720    1.988425    1.293875
      9          6           0        2.003177    1.789402   -0.715598
     10          6           0        2.113985   -1.798875   -0.740375
     11          1           0        0.258349   -1.142959    2.159576
     12          1           0        1.914310   -0.644542    1.778315
     13          1           0        1.523526   -2.358048    1.929482
     14          1           0        0.159403   -2.325606   -0.089219
     15          1           0       -1.597065   -0.032770    1.264942
     16          1           0       -2.873418    0.979810   -1.343635
     17          1           0       -2.260196    2.003547   -0.035821
     18          1           0       -3.662005    0.964560    0.242472
     19          1           0       -2.654791   -1.663316   -1.117222
     20          1           0       -3.486310   -1.469120    0.434807
     21          1           0       -1.945814   -2.328080    0.364174
     22          1           0       -0.064925    2.292445   -0.752667
     23          1           0        1.143770    1.393197    1.920809
     24          1           0       -0.540370    1.878773    1.691311
     25          1           0        0.761273    3.041521    1.417971
     26          1           0        2.724430    1.184298   -0.154713
     27          1           0        2.308271    2.838308   -0.608324
     28          1           0        2.089127    1.521043   -1.774436
     29          1           0        2.872733   -1.015800   -0.635034
     30          1           0        1.897647   -1.912632   -1.807852
     31          1           0        2.561041   -2.735719   -0.382812
 ---------------------------------------------------------------------

 SCF Done:  E(RB3LYP) =  -696.960915413     A.U. after    1 cycles

 Excitation energies and oscillator strengths:

 Excited State   1:      Singlet-A      6.2911 eV  197.08 nm  f=0.0575  <S**2>=0.000
      45 -> 46         0.69321
 This state for optimization and/or second-order correction.
 Total Energy, E(TD-HF/TD-KS) =  -696.729723562
 Copying the excited state density for this state as the 1-particle RhoCI density.

 Excited State   2:      Singlet-A      6.6968 eV  185.14 nm  f=0.0457  <S**2>=0.000
      45 -> 47         0.69564

 Excited State   3:      Singlet-A      6.7381 eV  184.00 nm  f=0.0930  <S**2>=0.000
      45 -> 48         0.69209

 Excited State   4:      Singlet-A      7.6116 eV  162.89 nm  f=0.0043  <S**2>=0.000
      45 -> 49         0.69915

 Excited State   5:      Singlet-A      7.7753 eV  159.46 nm  f=0.0060  <S**2>=0.000
      44 -> 46         0.12492
      45 -> 50         0.69104

 Excited State   6:      Singlet-A      7.9617 eV  155.73 nm  f=0.0233  <S**2>=0.000
      45 -> 51         0.68265
      45 -> 52        -0.10751

 Excited State   7:      Singlet-A      7.9959 eV  155.06 nm  f=0.0070  <S**2>=0.000
      43 -> 48        -0.16322
      44 -> 46         0.65694
      45 -> 50        -0.11675

 Excited State   8:      Singlet-A      8.1099 eV  152.88 nm  f=0.0074  <S**2>=0.000
      45 -> 51         0.10525
      45 -> 52         0.69064

 Excited State   9:      Singlet-A      8.3466 eV  148.54 nm  f=0.0645  <S**2>=0.000
      43 -> 46         0.64471
      43 -> 47         0.10067
      44 -> 48        -0.10290
      45 -> 54         0.11111

 Excited State  10:      Singlet-A      8.4441 eV  146.83 nm  f=0.0037  <S**2>=0.000
      43 -> 46         0.10177
      43 -> 48         0.14664
      44 -> 48         0.41623
      45 -> 53         0.52118

 The electronic state is 1-A.
 Alpha  occ. eigenvalues --  -77.05975 -10.19085 -10.19002 -10.18962 -10.17553
 Alpha  occ. eigenvalues --  -10.17505 -10.17492 -10.17488 -10.17418 -10.17225
 Alpha  occ. eigenvalues --   -6.52767  -4.69027  -4.69004  -4.68513  -0.79987
 Alpha  occ. eigenvalues --   -0.77420  -0.77315  -0.68422  -0.68088  -0.67569
 Alpha  occ. eigenvalues --   -0.63480  -0.57774  -0.57354  -0.50843  -0.46243
 Alpha  occ. eigenvalues --   -0.45326  -0.44008  -0.42883  -0.42482  -0.40354
 Alpha  occ. eigenvalues --   -0.40222  -0.39325  -0.39007  -0.38746  -0.38124
 Alpha  occ. eigenvalues --   -0.36929  -0.34844  -0.34253  -0.34084  -0.33694
 Alpha  occ. eigenvalues --   -0.33427  -0.33144  -0.28262  -0.27653  -0.20762
 Alpha virt. eigenvalues --    0.05491   0.06895   0.07034   0.10467   0.11064
 Alpha virt. eigenvalues --    0.11723   0.12389   0.13404   0.14105   0.14281
 Alpha virt. eigenvalues --    0.15720   0.16063   0.16879   0.17033   0.17116

 Mulliken atomic charges:
              1
     1  C   -0.422828
     2  C   -0.223836
     3  P    0.395002
     4  C   -0.258741
     5  C   -0.462302
     6  C   -0.457659
     7  C   -0.222473
     8  C   -0.446152
     9  C   -0.381739
    10  C   -0.407873
    11  H    0.137080
    12  H    0.128635
    13  H    0.150325
    14  H    0.125041
    15  H    0.175311
    16  H    0.148825
    17  H    0.157098
    18  H    0.150242
    19  H    0.147621
    20  H    0.148250
    21  H    0.154833
    22  H    0.130664
    23  H    0.145464
    24  H    0.142025
    25  H    0.159371
    26  H    0.109165
    27  H    0.093718
    28  H    0.118506
    29  H    0.132368
    30  H    0.132857
    31  H    0.101201
 Sum of Mulliken atomic charges =  -0.00000

 Dipole moment (field-independent basis, Debye):
    X=             -2.1750    Y=             -0.0298    Z=              0.6712  Tot=              2.2764
 Quadrupole moment (field-independent basis, Debye-Ang):
   XX=            -78.1337   YY=            -77.3046   ZZ=            -75.3684
   XY=             -0.5223   XZ=              0.9714   YZ=              0.3287

 Summary of Natural Population Analysis:

                                       Natural Population
                Natural  -----------------------------------------------
    Atom  No    Charge         Core      Valence    Rydberg      Total
 -----------------------------------------------------------------------
      C    1   -0.67864      1.99937     4.66743    0.01184     6.67864
      C    2   -0.55956      1.99920     4.53900    0.02136     6.55956
      P    3    1.11438      9.99760     3.79724    0.09078    13.88562
      C    4   -0.61765      1.99925     4.59587    0.02253     6.61765
      C    5   -0.68536      1.99942     4.67583    0.01010     6.68536
      C    6   -0.68398      1.99942     4.67432    0.01024     6.68398
      C    7   -0.57935      1.99921     4.55987    0.02027     6.57935
      C    8   -0.67614      1.99937     4.66524    0.01153     6.67614
      C    9   -0.68608      1.99941     4.67378    0.01289     6.68608
      C   10   -0.68071      1.99941     4.66873    0.01257     6.68071
      H   11    0.22350      0.00000     0.77381    0.00269     0.77650
      H   12    0.20647      0.00000     0.77907    0.01445     0.79353
      H   13    0.24271      0.00000     0.75135    0.00595     0.75729
      H   14    0.22092      0.00000     0.76622    0.01286     0.77908
      H   15    0.26319      0.00000     0.73476    0.00204     0.73681
      H   16    0.22711      0.00000     0.77083    0.00206     0.77289
      H   17    0.23165      0.00000     0.76637    0.00197     0.76835
      H   18    0.23775      0.00000     0.76100    0.00125     0.76225
      H   19    0.22628      0.00000     0.77149    0.00223     0.77372
      H   20    0.23693      0.00000     0.76181    0.00126     0.76307
      H   21    0.22939      0.00000     0.76748    0.00313     0.77061
      H   22    0.23406      0.00000     0.75737    0.00856     0.76594
      H   23    0.21977      0.00000     0.77225    0.00799     0.78023
      H   24    0.22312      0.00000     0.77539    0.00149     0.77688
      H   25    0.24824      0.00000     0.74885    0.00291     0.75176
      H   26    0.19893      0.00000     0.78574    0.01533     0.80107
      H   27    0.19947      0.00000     0.78888    0.01165     0.80053
      H   28    0.22005      0.00000     0.77160    0.00835     0.77995
      H   29    0.21538      0.00000     0.77302    0.01160     0.78462
      H   30    0.22529      0.00000     0.77154    0.00317     0.77471
      H   31    0.20286      0.00000     0.78580    0.01134     0.79714
 =======================================================================
   * Total *    0.00000     27.99166    61.65193    0.35641    90.00000

 Normal termination of Gaussian 09 at Sat Oct  2 03:17:38 2021.
