 Gaussian 09, Revision A.02,

 -----------------------------------
 #p opt b3lyp/6-31G* scf=(xqc,tight)
 -----------------------------------

 ------------------------
 c1ccc(cc1)c1cnco1_conf_0
 ------------------------
 Symbolic Z-matrix:
 Charge =  0 Multiplicity = 1

 SCF Done:  E(RB3LYP) =  -477.132633867     A.U. after   14 cycles
 SCF Done:  E(RB3LYP) =  -477.133687413     A.U. after   12 cycles
 SCF Done:  E(RB3LYP) =  -477.133934389     A.U. after   11 cycles
 SCF Done:  E(RB3LYP) =  -477.133981694     A.U. after   11 cycles
 SCF Done:  E(RB3LYP) =  -477.134033573     A.U. after   12 cycles
 SCF Done:  E(RB3LYP) =  -477.134067534     A.U. after   11 cycles
 SCF Done:  E(RB3LYP) =  -477.134100082     A.U. after   15 cycles
 SCF Done:  E(RB3LYP) =  -477.134102762     A.U. after   16 cycles
 SCF Done:  E(RB3LYP) =  -477.134103987     A.U. after   15 cycles
 SCF Done:  E(RB3LYP) =  -477.134104021     A.U. after    7 cycles
 Optimization completed.
    -- Stationary point found.
 Normal termination of Gaussian 09 at Mon Oct  4 12:25:21 2021.

 ----------------------------------------------------------------------
 #p freq b3lyp/6-31G* volume NMR pop=NPA density=current Geom=AllCheck
 Guess=Read
 ----------------------------------------------------------------------

 c1ccc(cc1)c1cnco1_conf_0
 ------------------------
 Redundant internal coordinates taken from checkpoint file:
 C9H7NO_5097_conf_0.chk
 Charge =  0 Multiplicity = 1

 SCF Done:  E(RB3LYP) =  -477.134104021     A.U. after    1 cycles

  1  C    Isotropic =    68.8971   Anisotropy =   165.9213

  2  C    Isotropic =    67.4283   Anisotropy =   166.9748

  3  C    Isotropic =    71.9180   Anisotropy =   160.7183

  4  C    Isotropic =    67.8465   Anisotropy =   162.5296

  5  C    Isotropic =    72.4505   Anisotropy =   155.3269

  6  C    Isotropic =    67.9102   Anisotropy =   165.9896

  7  C    Isotropic =    44.1573   Anisotropy =    92.3360

  8  C    Isotropic =    72.1019   Anisotropy =    99.6256

  9  N    Isotropic =    -6.9558   Anisotropy =   366.6717

 10  C    Isotropic =    48.6369   Anisotropy =    74.2461

 11  O    Isotropic =    40.6209   Anisotropy =   255.7672

 12  H    Isotropic =    25.0969   Anisotropy =     4.2427

 13  H    Isotropic =    24.9312   Anisotropy =     4.7935

 14  H    Isotropic =    24.5391   Anisotropy =     8.1002

 15  H    Isotropic =    24.7480   Anisotropy =     7.4498

 16  H    Isotropic =    24.9479   Anisotropy =     4.7018

 17  H    Isotropic =    25.0131   Anisotropy =     5.2296

 18  H    Isotropic =    24.8086   Anisotropy =     4.2615

  Exact polarizability: 161.372   0.839 102.312   0.000  -0.000  35.195
 Approx polarizability: 247.395   7.934 185.663   0.001   0.000  55.044

                     1                      2                      3
                     A                      A                      A
 Frequencies --    37.2525               111.2088               153.4192
 Red. masses --     4.2931                 5.2670                 4.8342
 Frc consts  --     0.0035                 0.0384                 0.0670
 IR Inten    --     0.1452                 0.0194                 0.0581

                     4                      5                      6
                     A                      A                      A
 Frequencies --   280.6265               349.9512               410.4448
 Red. masses --     5.1456                 7.4215                 2.9871
 Frc consts  --     0.2388                 0.5355                 0.2965
 IR Inten    --     0.0492                 0.0670                 0.0102

                     7                      8                      9
                     A                      A                      A
 Frequencies --   443.7386               505.3630               633.3729
 Red. masses --     5.2815                 3.5569                 6.4272
 Frc consts  --     0.6127                 0.5352                 1.5191
 IR Inten    --     0.6485                 2.6280                 0.0117

                    10                     11                     12
                     A                      A                      A
 Frequencies --   656.6515               680.2916               697.1235
 Red. masses --     2.9841                 3.4922                 6.5399
 Frc consts  --     0.7581                 0.9522                 1.8726
 IR Inten    --    21.5456                 6.2069                 9.9487

                    13                     14                     15
                     A                      A                      A
 Frequencies --   704.8140               779.7729               812.4569
 Red. masses --     1.9732                 1.7958                 1.5005
 Frc consts  --     0.5775                 0.6434                 0.5836
 IR Inten    --    22.6010                29.8781                16.2763

                    16                     17                     18
                     A                      A                      A
 Frequencies --   840.5373               855.4572               926.1885
 Red. masses --     1.4629                 1.2661                 1.4113
 Frc consts  --     0.6089                 0.5459                 0.7133
 IR Inten    --     7.7607                 1.1698                 3.0890

                    19                     20                     21
                     A                      A                      A
 Frequencies --   933.3954               960.7749               966.8098
 Red. masses --     6.1476                 9.3497                 1.3446
 Frc consts  --     3.1556                 5.0850                 0.7405
 IR Inten    --    11.7271                20.0454                 0.0658

                    22                     23                     24
                     A                      A                      A
 Frequencies --   996.6303              1016.6585              1049.5640
 Red. masses --     1.2538                 6.1284                 3.5938
 Frc consts  --     0.7337                 3.7320                 2.3325
 IR Inten    --     0.1850                 0.0404                 7.3499

                    25                     26                     27
                     A                      A                      A
 Frequencies --  1077.7663              1113.0298              1143.3177
 Red. masses --     2.1576                 1.6017                 4.5510
 Frc consts  --     1.4766                 1.1691                 3.5050
 IR Inten    --     7.9983                 2.2909                 1.5739

                    28                     29                     30
                     A                      A                      A
 Frequencies --  1150.7509              1194.9301              1217.8123
 Red. masses --     3.3915                 1.0987                 1.1415
 Frc consts  --     2.6461                 0.9243                 0.9975
 IR Inten    --    43.1608                 0.2000                 0.0285

                    31                     32                     33
                     A                      A                      A
 Frequencies --  1255.9321              1317.0758              1329.8808
 Red. masses --     1.5110                 2.7817                 2.2945
 Frc consts  --     1.4042                 2.8430                 2.3910
 IR Inten    --     0.4577                 4.4954                 1.5350

                    34                     35                     36
                     A                      A                      A
 Frequencies --  1368.0958              1375.5960              1492.6931
 Red. masses --     4.4817                 1.5721                 2.3980
 Frc consts  --     4.9423                 1.7527                 3.1480
 IR Inten    --     0.7325                 0.3549                 2.4297

                    37                     38                     39
                     A                      A                      A
 Frequencies --  1533.2751              1555.3622              1625.7382
 Red. masses --     2.7244                 3.6226                 5.4677
 Frc consts  --     3.7737                 5.1634                 8.5145
 IR Inten    --    26.0685                22.3876                 0.9786

                    40                     41                     42
                     A                      A                      A
 Frequencies --  1642.8472              1667.2565              3185.5358
 Red. masses --     6.1802                 5.5350                 1.0850
 Frc consts  --     9.8276                 9.0651                 6.4872
 IR Inten    --     1.6222                 6.4766                 2.3542

                    43                     44                     45
                     A                      A                      A
 Frequencies --  3193.1474              3202.9668              3212.4027
 Red. masses --     1.0882                 1.0924                 1.0962
 Frc consts  --     6.5371                 6.6030                 6.6653
 IR Inten    --     4.6192                25.8229                23.6919

                    46                     47                     48
                     A                      A                      A
 Frequencies --  3223.1357              3282.2501              3299.8291
 Red. masses --     1.0939                 1.0967                 1.0986
 Frc consts  --     6.6958                 6.9614                 7.0484
 IR Inten    --     5.6067                 5.4177                 0.5108

 - Thermochemistry -
 -------------------
 Temperature   298.150 Kelvin.  Pressure   1.00000 Atm.
 Atom     1 has atomic number  6 and mass  12.00000

 Molecular mass:   145.05276 amu.
 Principal axes and moments of inertia in atomic units:
                           1         2         3
     Eigenvalues --   499.392382618.851493118.24387
           X            1.00000  -0.00276  -0.00000
           Y            0.00276   1.00000  -0.00000
           Z            0.00000   0.00000   1.00000
 This molecule is an asymmetric top.
 Rotational symmetry number  1.
 Warning -- assumption of classical behavior for rotation
           may cause significant error
 Rotational temperatures (Kelvin)      0.17344     0.03307     0.02778
 Rotational constants (GHZ):           3.61387     0.68913     0.57877
 Zero-point vibrational energy     367631.2 (Joules/Mol)
                                   87.86596 (Kcal/Mol)
 Warning -- explicit consideration of   8 degrees of freedom as
           vibrations may cause significant error
 Vibrational temperatures:     53.60   160.00   220.74   403.76   503.50
          (Kelvin)            590.54   638.44   727.10   911.28   944.77
                              978.79  1003.00  1014.07  1121.92  1168.94
                             1209.34  1230.81  1332.58  1342.95  1382.34
                             1391.02  1433.93  1462.74  1510.09  1550.66
                             1601.40  1644.98  1655.67  1719.24  1752.16
                             1807.00  1894.98  1913.40  1968.38  1979.17
                             2147.65  2206.04  2237.82  2339.07  2363.69
                             2398.81  4583.27  4594.22  4608.35  4621.93
                             4637.37  4722.42  4747.71

 Zero-point correction=                           0.140023 (Hartree/Particle)
 Thermal correction to Energy=                    0.148054
 Thermal correction to Enthalpy=                  0.148998
 Thermal correction to Gibbs Free Energy=         0.105929
 Sum of electronic and zero-point Energies=           -476.994081
 Sum of electronic and thermal Energies=              -476.986050
 Sum of electronic and thermal Enthalpies=            -476.985106
 Sum of electronic and thermal Free Energies=         -477.028175

                     E (Thermal)             CV                S
                      KCal/Mol        Cal/Mol-Kelvin    Cal/Mol-Kelvin
 Total                   92.905             31.288             90.646
 Electronic               0.000              0.000              0.000
 Translational            0.889              2.981             40.827
 Rotational               0.889              2.981             29.790
 Vibrational             91.128             25.327             20.029
 Vibration     1          0.594              1.982              5.400
 Vibration     2          0.607              1.940              3.248
 Vibration     3          0.619              1.899              2.629
 Vibration     4          0.680              1.709              1.530
 Vibration     5          0.727              1.575              1.166
 Vibration     6          0.775              1.448              0.925
 Vibration     7          0.803              1.375              0.815
 Vibration     8          0.861              1.238              0.645

 Optimization completed.
    -- Stationary point found.
 Normal termination of Gaussian 09 at Mon Oct  4 13:10:59 2021.
 Gaussian 09:  AM64L-G09RevA.02 11-Jun-2009

 ----------------------------------------------------------------------
 #p TD(NStates=10, Root=1) b3lyp/6-31G* volume pop=NPA density=current
 Geom=AllCheck Guess=Read
 ----------------------------------------------------------------------

 c1ccc(cc1)c1cnco1_conf_0
 ------------------------
 Redundant internal coordinates taken from checkpoint file:
 C9H7NO_5097_conf_0.chk
 Charge =  0 Multiplicity = 1

                         Standard orientation:
 ---------------------------------------------------------------------
 Center     Atomic      Atomic             Coordinates (Angstroms)
 Number     Number       Type             X           Y           Z
 ---------------------------------------------------------------------
      1          6           0       -3.242211   -0.066375    0.000018
      2          6           0       -2.487102   -1.240397    0.000021
      3          6           0       -1.094935   -1.184113    0.000023
      4          6           0       -0.433801    0.055983   -0.000017
      5          6           0       -1.202200    1.233987   -0.000037
      6          6           0       -2.592261    1.170733   -0.000004
      7          6           0        1.020860    0.130850   -0.000028
      8          6           0        1.941719    1.141423    0.000035
      9          7           0        3.224949    0.615119    0.000044
     10          6           0        3.037391   -0.665811    0.000001
     11          8           0        1.736442   -1.048741   -0.000054
     12          1           0       -4.327595   -0.113490    0.000043
     13          1           0       -2.983250   -2.207199    0.000023
     14          1           0       -0.511988   -2.099094    0.000030
     15          1           0       -0.707891    2.201347   -0.000087
     16          1           0       -3.170652    2.090609   -0.000014
     17          1           0        1.775046    2.208934    0.000053
     18          1           0        3.775392   -1.454678   -0.000004
 ---------------------------------------------------------------------

 SCF Done:  E(RB3LYP) =  -477.134104021     A.U. after    3 cycles

 Excitation energies and oscillator strengths:

 Excited State   1:      Singlet-A      4.7292 eV  262.17 nm  f=0.5390  <S**2>=0.000
      38 -> 39         0.70045
 This state for optimization and/or second-order correction.
 Total Energy, E(TD-HF/TD-KS) =  -476.960307901
 Copying the excited state density for this state as the 1-particle RhoCI density.

 Excited State   2:      Singlet-A      4.8412 eV  256.10 nm  f=0.0042  <S**2>=0.000
      37 -> 39         0.44614
      38 -> 40         0.53945

 Excited State   3:      Singlet-A      5.7193 eV  216.78 nm  f=0.0645  <S**2>=0.000
      35 -> 40         0.19045
      37 -> 39         0.49895
      38 -> 40        -0.42712
      38 -> 41        -0.14511

 Excited State   4:      Singlet-A      5.7520 eV  215.55 nm  f=0.0003  <S**2>=0.000
      36 -> 39         0.69340
      36 -> 41         0.12412

 Excited State   5:      Singlet-A      5.9984 eV  206.70 nm  f=0.0319  <S**2>=0.000
      34 -> 39         0.15498
      35 -> 39         0.27469
      37 -> 39         0.11663
      38 -> 41         0.60535

 Excited State   6:      Singlet-A      6.3156 eV  196.31 nm  f=0.0474  <S**2>=0.000
      35 -> 39         0.53733
      37 -> 40        -0.37820
      38 -> 41        -0.19732
      38 -> 42        -0.12690

 Excited State   7:      Singlet-A      6.7821 eV  182.81 nm  f=0.2173  <S**2>=0.000
      34 -> 39        -0.34083
      35 -> 39         0.17776
      35 -> 40        -0.10001
      37 -> 40         0.45185
      37 -> 41         0.14403
      38 -> 42        -0.32080

 Excited State   8:      Singlet-A      6.8681 eV  180.52 nm  f=0.0071  <S**2>=0.000
      34 -> 39         0.16423
      35 -> 40        -0.44501
      37 -> 41         0.48831

 Excited State   9:      Singlet-A      7.0316 eV  176.32 nm  f=0.0030  <S**2>=0.000
      36 -> 40         0.61602
      36 -> 41         0.32120

 Excited State  10:      Singlet-A      7.2269 eV  171.56 nm  f=0.0010  <S**2>=0.000
      33 -> 39         0.59470
      36 -> 40        -0.20813
      36 -> 41         0.29644

 The electronic state is 1-A.
 Alpha  occ. eigenvalues --  -19.22992 -14.33495 -10.27520 -10.25370 -10.21644
 Alpha  occ. eigenvalues --  -10.21393 -10.19993 -10.19780 -10.19726 -10.19676
 Alpha  occ. eigenvalues --  -10.19631  -1.13416  -0.92222  -0.86507  -0.79480
 Alpha  occ. eigenvalues --   -0.75241  -0.73426  -0.64024  -0.63063  -0.59955
 Alpha  occ. eigenvalues --   -0.57711  -0.54721  -0.50963  -0.47472  -0.47427
 Alpha  occ. eigenvalues --   -0.45390  -0.43325  -0.43098  -0.42410  -0.39920
 Alpha  occ. eigenvalues --   -0.37615  -0.36127  -0.34900  -0.32239  -0.29168
 Alpha  occ. eigenvalues --   -0.29023  -0.25778  -0.21969
 Alpha virt. eigenvalues --   -0.03929  -0.00699   0.02500   0.07501   0.08679
 Alpha virt. eigenvalues --    0.11719   0.12436   0.14436   0.15599   0.16583
 Alpha virt. eigenvalues --    0.17251   0.17842   0.19792   0.22244   0.26616

 Mulliken atomic charges:
              1
     1  C   -0.137557
     2  C   -0.134817
     3  C   -0.162677
     4  C    0.069855
     5  C   -0.177328
     6  C   -0.132325
     7  C    0.300477
     8  C   -0.056850
     9  N   -0.394887
    10  C    0.254253
    11  O   -0.439307
    12  H    0.128487
    13  H    0.131290
    14  H    0.146251
    15  H    0.125638
    16  H    0.132502
    17  H    0.166290
    18  H    0.180706
 Sum of Mulliken atomic charges =  -0.00000

 Dipole moment (field-independent basis, Debye):
    X=             -0.7551    Y=             -0.4870    Z=             -0.0000  Tot=              0.8985
 Quadrupole moment (field-independent basis, Debye-Ang):
   XX=            -61.9458   YY=            -56.5645   ZZ=            -65.8129
   XY=             -5.3289   XZ=             -0.0003   YZ=             -0.0002

 Summary of Natural Population Analysis:

                                       Natural Population
                Natural  -----------------------------------------------
    Atom  No    Charge         Core      Valence    Rydberg      Total
 -----------------------------------------------------------------------
      C    1   -0.24131      1.99909     4.22513    0.01709     6.24131
      C    2   -0.24593      1.99912     4.23161    0.01520     6.24593
      C    3   -0.19295      1.99907     4.17888    0.01500     6.19295
      C    4   -0.13798      1.99898     4.12227    0.01673     6.13798
      C    5   -0.22436      1.99907     4.21024    0.01505     6.22436
      C    6   -0.22637      1.99912     4.21249    0.01477     6.22637
      C    7    0.31807      1.99892     3.65857    0.02444     5.68193
      C    8   -0.07194      1.99904     4.04966    0.02324     6.07194
      N    9   -0.48054      1.99951     5.45739    0.02364     7.48054
      C   10    0.34279      1.99940     3.62205    0.03577     5.65721
      O   11   -0.48608      1.99975     6.47473    0.01159     8.48608
      H   12    0.23326      0.00000     0.76560    0.00114     0.76674
      H   13    0.23745      0.00000     0.76169    0.00086     0.76255
      H   14    0.24401      0.00000     0.75447    0.00152     0.75599
      H   15    0.22926      0.00000     0.76934    0.00140     0.77074
      H   16    0.23784      0.00000     0.76128    0.00088     0.76216
      H   17    0.24067      0.00000     0.75837    0.00097     0.75933
      H   18    0.22410      0.00000     0.77502    0.00088     0.77590
 =======================================================================
   * Total *   -0.00000     21.99106    53.78878    0.22016    76.00000

 Normal termination of Gaussian 09 at Mon Oct  4 15:51:46 2021.
