 Gaussian 09, Revision A.02,

 -----------------------------------
 #p opt b3lyp/6-31G* scf=(xqc,tight)
 -----------------------------------

 -----------------------
 c1ccc2c(c1)cncc2_conf_0
 -----------------------
 Symbolic Z-matrix:
 Charge =  0 Multiplicity = 1

 SCF Done:  E(RB3LYP) =  -401.925067840     A.U. after   14 cycles
 SCF Done:  E(RB3LYP) =  -401.928803781     A.U. after   12 cycles
 SCF Done:  E(RB3LYP) =  -401.929069831     A.U. after   15 cycles
 SCF Done:  E(RB3LYP) =  -401.929084531     A.U. after   16 cycles
 SCF Done:  E(RB3LYP) =  -401.929086573     A.U. after   16 cycles
 Optimization completed.
    -- Stationary point found.
 Normal termination of Gaussian 09 at Sun Oct  3 23:01:34 2021.

 ----------------------------------------------------------------------
 #p freq b3lyp/6-31G* volume NMR pop=NPA density=current Geom=AllCheck
 Guess=Read
 ----------------------------------------------------------------------

 c1ccc2c(c1)cncc2_conf_0
 -----------------------
 Redundant internal coordinates taken from checkpoint file:
 C9H7N_309f_conf_0.chk
 Charge =  0 Multiplicity = 1

 SCF Done:  E(RB3LYP) =  -401.929086573     A.U. after    1 cycles

  1  C    Isotropic =    69.7345   Anisotropy =   163.7515

  2  C    Isotropic =    66.8684   Anisotropy =   168.0715

  3  C    Isotropic =    69.1935   Anisotropy =   147.1732

  4  C    Isotropic =    61.5396   Anisotropy =   207.5733

  5  C    Isotropic =    68.1997   Anisotropy =   194.4537

  6  C    Isotropic =    67.7399   Anisotropy =   155.3235

  7  C    Isotropic =    43.7136   Anisotropy =   140.6006

  8  N    Isotropic =   -57.3976   Anisotropy =   531.7980

  9  C    Isotropic =    51.6582   Anisotropy =   147.7883

 10  C    Isotropic =    75.2071   Anisotropy =   138.9391

 11  H    Isotropic =    24.6982   Anisotropy =     5.1718

 12  H    Isotropic =    24.6225   Anisotropy =     5.3907

 13  H    Isotropic =    24.5700   Anisotropy =     6.5873

 14  H    Isotropic =    24.4383   Anisotropy =     5.9657

 15  H    Isotropic =    23.0306   Anisotropy =     7.5199

 16  H    Isotropic =    23.5306   Anisotropy =     6.8295

 17  H    Isotropic =    24.8726   Anisotropy =     6.9050

  Exact polarizability: 141.920   2.623 106.633  -0.000   0.000  32.422
 Approx polarizability: 251.489   0.192 192.557  -0.001   0.000  50.771

                     1                      2                      3
                     A                      A                      A
 Frequencies --   175.3376               189.5893               359.8433
 Red. masses --     4.7692                 3.6770                 4.1085
 Frc consts  --     0.0864                 0.0779                 0.3134
 IR Inten    --     0.0017                 0.8836                 0.0736

                     4                      5                      6
                     A                      A                      A
 Frequencies --   388.9612               474.4231               498.3357
 Red. masses --     3.0545                 3.4182                 2.8387
 Frc consts  --     0.2723                 0.4533                 0.4154
 IR Inten    --     0.3137                 0.0363                13.6004

                     7                      8                      9
                     A                      A                      A
 Frequencies --   510.9857               531.2641               653.4125
 Red. masses --     8.0947                 6.8275                 3.7335
 Frc consts  --     1.2453                 1.1354                 0.9392
 IR Inten    --     1.2160                 0.4028                 4.0659

                    10                     11                     12
                     A                      A                      A
 Frequencies --   657.1030               759.4385               794.1453
 Red. masses --     6.6614                 1.2050                 4.6799
 Frc consts  --     1.6947                 0.4095                 1.7390
 IR Inten    --     5.5964                24.1978                 0.7843

                    13                     14                     15
                     A                      A                      A
 Frequencies --   796.3278               812.3605               850.9800
 Red. masses --     3.2402                 6.2777                 1.3650
 Frc consts  --     1.2106                 2.4409                 0.5824
 IR Inten    --     1.2877                 4.2046                35.7558

                    16                     17                     18
                     A                      A                      A
 Frequencies --   882.9253               951.3487               955.6482
 Red. masses --     1.4647                 1.3933                 5.4436
 Frc consts  --     0.6727                 0.7430                 2.9291
 IR Inten    --     5.2326                 0.0391                 8.9369

                    19                     20                     21
                     A                      A                      A
 Frequencies --   966.3764               984.4051               998.4083
 Red. masses --     1.3579                 1.4158                 1.2871
 Frc consts  --     0.7471                 0.8084                 0.7559
 IR Inten    --     2.0070                 0.9044                 0.0018

                    22                     23                     24
                     A                      A                      A
 Frequencies --  1046.4969              1071.2093              1168.8678
 Red. masses --     2.4408                 2.3792                 1.5221
 Frc consts  --     1.5749                 1.6085                 1.2252
 IR Inten    --     2.3718                 2.9718                 1.8262

                    25                     26                     27
                     A                      A                      A
 Frequencies --  1182.4662              1215.7153              1253.4193
 Red. masses --     1.3059                 1.4845                 1.9002
 Frc consts  --     1.0758                 1.2927                 1.7589
 IR Inten    --     1.5287                 0.2445                 4.3540

                    28                     29                     30
                     A                      A                      A
 Frequencies --  1287.0305              1300.9912              1384.2291
 Red. masses --     1.6327                 1.9105                 3.7912
 Frc consts  --     1.5935                 1.9052                 4.2800
 IR Inten    --     2.0382                16.9356                 0.2342

                    31                     32                     33
                     A                      A                      A
 Frequencies --  1417.6239              1427.0175              1480.7703
 Red. masses --     2.8692                 2.2167                 2.1807
 Frc consts  --     3.3973                 2.6596                 2.8172
 IR Inten    --     5.3300                 4.7194                 2.0599

                    34                     35                     36
                     A                      A                      A
 Frequencies --  1508.0231              1553.2935              1623.8840
 Red. masses --     2.0434                 3.0663                 6.6305
 Frc consts  --     2.7379                 4.3588                10.3016
 IR Inten    --     0.8007                 9.7623                 7.5827

                    37                     38                     39
                     A                      A                      A
 Frequencies --  1642.8968              1684.2484              3146.0927
 Red. masses --     5.0790                 5.9874                 1.0895
 Frc consts  --     8.0769                10.0070                 6.3539
 IR Inten    --    20.8411                19.3245                27.3551

                    40                     41                     42
                     A                      A                      A
 Frequencies --  3180.6787              3182.0897              3186.7471
 Red. masses --     1.0868                 1.0859                 1.0884
 Frc consts  --     6.4779                 6.4783                 6.5120
 IR Inten    --    10.4281                 2.8031                 0.9024

                    43                     44                     45
                     A                      A                      A
 Frequencies --  3198.9350              3200.4404              3211.5433
 Red. masses --     1.0943                 1.0955                 1.0971
 Frc consts  --     6.5976                 6.6110                 6.6670
 IR Inten    --    13.1006                52.5789                21.2818

 - Thermochemistry -
 -------------------
 Temperature   298.150 Kelvin.  Pressure   1.00000 Atm.
 Atom     1 has atomic number  6 and mass  12.00000

 Molecular mass:   129.05785 amu.
 Principal axes and moments of inertia in atomic units:
                           1         2         3
     Eigenvalues --   564.375081461.476902025.85197
           X            0.99989   0.01473  -0.00000
           Y           -0.01473   0.99989   0.00000
           Z            0.00000  -0.00000   1.00000
 This molecule is an asymmetric top.
 Rotational symmetry number  1.
 Warning -- assumption of classical behavior for rotation
           may cause significant error
 Rotational temperatures (Kelvin)      0.15347     0.05926     0.04275
 Rotational constants (GHZ):           3.19777     1.23487     0.89086
 Zero-point vibrational energy     357362.4 (Joules/Mol)
                                   85.41167 (Kcal/Mol)
 Warning -- explicit consideration of   8 degrees of freedom as
           vibrations may cause significant error
 Vibrational temperatures:    252.27   272.78   517.73   559.63   682.59
          (Kelvin)            716.99   735.19   764.37   940.11   945.42
                             1092.66  1142.60  1145.74  1168.80  1224.37
                             1270.33  1368.78  1374.96  1390.40  1416.34
                             1436.49  1505.67  1541.23  1681.74  1701.30
                             1749.14  1803.39  1851.75  1871.83  1991.59
                             2039.64  2053.16  2130.50  2169.71  2234.84
                             2336.40  2363.76  2423.25  4526.52  4576.28
                             4578.31  4585.01  4602.55  4604.71  4620.69

 Zero-point correction=                           0.136112 (Hartree/Particle)
 Thermal correction to Energy=                    0.142790
 Thermal correction to Enthalpy=                  0.143734
 Thermal correction to Gibbs Free Energy=         0.104949
 Sum of electronic and zero-point Energies=           -401.792974
 Sum of electronic and thermal Energies=              -401.786297
 Sum of electronic and thermal Enthalpies=            -401.785353
 Sum of electronic and thermal Free Energies=         -401.824137

                     E (Thermal)             CV                S
                      KCal/Mol        Cal/Mol-Kelvin    Cal/Mol-Kelvin
 Total                   89.602             27.754             81.629
 Electronic               0.000              0.000              0.000
 Translational            0.889              2.981             40.478
 Rotational               0.889              2.981             28.904
 Vibrational             87.824             21.792             12.246
 Vibration     1          0.627              1.873              2.377
 Vibration     2          0.633              1.854              2.232
 Vibration     3          0.734              1.555              1.123
 Vibration     4          0.757              1.494              1.004
 Vibration     5          0.831              1.307              0.725
 Vibration     6          0.854              1.254              0.662
 Vibration     7          0.866              1.226              0.631
 Vibration     8          0.886              1.181              0.584

 Optimization completed.
    -- Stationary point found.
 Normal termination of Gaussian 09 at Sun Oct  3 23:48:14 2021.
 Gaussian 09:  AM64L-G09RevA.02 11-Jun-2009

 ----------------------------------------------------------------------
 #p TD(NStates=10, Root=1) b3lyp/6-31G* volume pop=NPA density=current
 Geom=AllCheck Guess=Read
 ----------------------------------------------------------------------

 c1ccc2c(c1)cncc2_conf_0
 -----------------------
 Redundant internal coordinates taken from checkpoint file:
 C9H7N_309f_conf_0.chk
 Charge =  0 Multiplicity = 1

                         Standard orientation:
 ---------------------------------------------------------------------
 Center     Atomic      Atomic             Coordinates (Angstroms)
 Number     Number       Type             X           Y           Z
 ---------------------------------------------------------------------
      1          6           0       -2.415390   -0.708564   -0.000010
      2          6           0       -2.416945    0.709688    0.000024
      3          6           0       -1.234290    1.415142    0.000014
      4          6           0        0.009325    0.729092   -0.000009
      5          6           0        0.008569   -0.699386   -0.000010
      6          6           0       -1.225093   -1.400002   -0.000031
      7          6           0        1.269173   -1.358489    0.000031
      8          7           0        2.433742   -0.744162    0.000029
      9          6           0        2.420047    0.618261   -0.000023
     10          6           0        1.271912    1.376129   -0.000021
     11          1           0       -3.360115   -1.244987   -0.000024
     12          1           0       -3.364860    1.241157    0.000069
     13          1           0       -1.237731    2.502368    0.000024
     14          1           0       -1.213767   -2.487466   -0.000055
     15          1           0        1.291633   -2.449585    0.000041
     16          1           0        3.398023    1.094672   -0.000017
     17          1           0        1.326783    2.461748   -0.000024
 ---------------------------------------------------------------------

 SCF Done:  E(RB3LYP) =  -401.929086573     A.U. after    1 cycles

 Excitation energies and oscillator strengths:

 Excited State   1:      Singlet-A      4.3151 eV  287.33 nm  f=0.0011  <S**2>=0.000
      33 -> 35         0.69923
      33 -> 37        -0.10031
 This state for optimization and/or second-order correction.
 Total Energy, E(TD-HF/TD-KS) =  -401.770509049
 Copying the excited state density for this state as the 1-particle RhoCI density.

 Excited State   2:      Singlet-A      4.3845 eV  282.78 nm  f=0.0551  <S**2>=0.000
      32 -> 35         0.15279
      32 -> 36        -0.15952
      34 -> 35         0.64262
      34 -> 36         0.18326

 Excited State   3:      Singlet-A      4.7099 eV  263.24 nm  f=0.0125  <S**2>=0.000
      32 -> 35         0.45064
      34 -> 35        -0.24161
      34 -> 36         0.48340

 Excited State   4:      Singlet-A      5.1290 eV  241.73 nm  f=0.0014  <S**2>=0.000
      33 -> 36         0.70216

 Excited State   5:      Singlet-A      5.8413 eV  212.25 nm  f=0.0484  <S**2>=0.000
      31 -> 35         0.52448
      32 -> 35        -0.15695
      34 -> 36         0.13086
      34 -> 37        -0.42433

 Excited State   6:      Singlet-A      6.1909 eV  200.27 nm  f=0.9332  <S**2>=0.000
      31 -> 35         0.19412
      32 -> 35         0.45088
      32 -> 36        -0.19663
      34 -> 36        -0.44546

 Excited State   7:      Singlet-A      6.2949 eV  196.96 nm  f=0.1768  <S**2>=0.000
      31 -> 35        -0.13077
      31 -> 36        -0.28556
      31 -> 37        -0.10729
      32 -> 35         0.19551
      32 -> 36         0.46920
      32 -> 37        -0.18375
      34 -> 36        -0.11414
      34 -> 37        -0.25600

 Excited State   8:      Singlet-A      6.4709 eV  191.60 nm  f=0.0008  <S**2>=0.000
      33 -> 37         0.69589

 Excited State   9:      Singlet-A      6.5153 eV  190.30 nm  f=0.0830  <S**2>=0.000
      31 -> 35         0.18661
      31 -> 36         0.35262
      31 -> 37        -0.10234
      32 -> 36         0.43748
      32 -> 37         0.25902
      34 -> 37         0.22491

 Excited State  10:      Singlet-A      6.7592 eV  183.43 nm  f=0.0042  <S**2>=0.000
      31 -> 35         0.35685
      31 -> 36        -0.33810
      32 -> 37        -0.22814
      34 -> 37         0.43535

 The electronic state is 1-A.
 Alpha  occ. eigenvalues --  -14.32763 -10.22473 -10.21755 -10.21118 -10.20484
 Alpha  occ. eigenvalues --  -10.20413 -10.20309 -10.20143 -10.20104 -10.19684
 Alpha  occ. eigenvalues --   -0.93784  -0.86220  -0.78979  -0.76928  -0.73528
 Alpha  occ. eigenvalues --   -0.64626  -0.62886  -0.60837  -0.52676  -0.52345
 Alpha  occ. eigenvalues --   -0.49498  -0.45999  -0.45088  -0.42783  -0.42549
 Alpha  occ. eigenvalues --   -0.40758  -0.39374  -0.36767  -0.35135  -0.34408
 Alpha  occ. eigenvalues --   -0.29633  -0.26314  -0.25229  -0.22835
 Alpha virt. eigenvalues --   -0.05095  -0.02161   0.02482   0.08794   0.09292
 Alpha virt. eigenvalues --    0.11391   0.12779   0.16013   0.16171   0.17430
 Alpha virt. eigenvalues --    0.19150   0.19242   0.21938   0.26272   0.28911

 Mulliken atomic charges:
              1
     1  C   -0.133187
     2  C   -0.138926
     3  C   -0.214587
     4  C    0.169385
     5  C    0.137047
     6  C   -0.225164
     7  C   -0.037451
     8  N   -0.321935
     9  C    0.042875
    10  C   -0.242442
    11  H    0.123804
    12  H    0.120142
    13  H    0.116246
    14  H    0.117238
    15  H    0.170144
    16  H    0.169303
    17  H    0.147506
 Sum of Mulliken atomic charges =  -0.00000

 Dipole moment (field-independent basis, Debye):
    X=              1.6963    Y=             -0.1793    Z=              0.0000  Tot=              1.7058
 Quadrupole moment (field-independent basis, Debye-Ang):
   XX=            -50.3719   YY=            -50.4848   ZZ=            -61.9699
   XY=              0.8167   XZ=             -0.0001   YZ=              0.0000

 Summary of Natural Population Analysis:

                                       Natural Population
                Natural  -----------------------------------------------
    Atom  No    Charge         Core      Valence    Rydberg      Total
 -----------------------------------------------------------------------
      C    1   -0.23311      1.99910     4.21987    0.01414     6.23311
      C    2   -0.23829      1.99911     4.22471    0.01448     6.23829
      C    3   -0.28196      1.99904     4.26879    0.01412     6.28196
      C    4   -0.00923      1.99901     3.99556    0.01466     6.00923
      C    5   -0.05928      1.99896     4.04626    0.01405     6.05928
      C    6   -0.27728      1.99904     4.26403    0.01422     6.27728
      C    7   -0.09542      1.99913     4.07438    0.02191     6.09542
      N    8   -0.09969      1.99892     5.08847    0.01230     7.09969
      C    9   -0.05993      1.99907     4.04185    0.01902     6.05993
      C   10   -0.33430      1.99900     4.32019    0.01511     6.33430
      H   11    0.23628      0.00000     0.76295    0.00077     0.76372
      H   12    0.23313      0.00000     0.76608    0.00079     0.76687
      H   13    0.23045      0.00000     0.76856    0.00098     0.76955
      H   14    0.23000      0.00000     0.76905    0.00094     0.77000
      H   15    0.25115      0.00000     0.74805    0.00080     0.74885
      H   16    0.25148      0.00000     0.74796    0.00055     0.74852
      H   17    0.25598      0.00000     0.74338    0.00064     0.74402
 =======================================================================
   * Total *   -0.00000     19.99038    47.85014    0.15948    68.00000

 Normal termination of Gaussian 09 at Mon Oct  4 02:45:28 2021.
