 Gaussian 09, Revision A.02,

 -----------------------------------
 #p opt b3lyp/6-31G* scf=(xqc,tight)
 -----------------------------------

 ------------------------
 c1ccc(cc1)c1cncs1_conf_0
 ------------------------
 Symbolic Z-matrix:
 Charge =  0 Multiplicity = 1

 SCF Done:  E(RB3LYP) =  -800.104034144     A.U. after   16 cycles
 SCF Done:  E(RB3LYP) =  -800.105445540     A.U. after   13 cycles
 SCF Done:  E(RB3LYP) =  -800.105661121     A.U. after   12 cycles
 SCF Done:  E(RB3LYP) =  -800.105669634     A.U. after   11 cycles
 SCF Done:  E(RB3LYP) =  -800.105696834     A.U. after   10 cycles
 SCF Done:  E(RB3LYP) =  -800.105701177     A.U. after    9 cycles
 SCF Done:  E(RB3LYP) =  -800.105702232     A.U. after    9 cycles
 SCF Done:  E(RB3LYP) =  -800.105702420     A.U. after    8 cycles
 SCF Done:  E(RB3LYP) =  -800.105702491     A.U. after    8 cycles
 Optimization completed.
    -- Stationary point found.
 Normal termination of Gaussian 09 at Mon Oct  4 13:29:15 2021.

 ----------------------------------------------------------------------
 #p freq b3lyp/6-31G* volume NMR pop=NPA density=current Geom=AllCheck
 Guess=Read
 ----------------------------------------------------------------------

 c1ccc(cc1)c1cncs1_conf_0
 ------------------------
 Redundant internal coordinates taken from checkpoint file:
 C9H7NS_a4ea_conf_0.chk
 Charge =  0 Multiplicity = 1

 SCF Done:  E(RB3LYP) =  -800.105702491     A.U. after    1 cycles

  1  C    Isotropic =    68.4879   Anisotropy =   166.9961

  2  C    Isotropic =    67.4732   Anisotropy =   165.5620

  3  C    Isotropic =    67.5781   Anisotropy =   146.7007

  4  C    Isotropic =    63.4144   Anisotropy =   165.9394

  5  C    Isotropic =    69.8425   Anisotropy =   151.6774

  6  C    Isotropic =    67.6094   Anisotropy =   165.7296

  7  C    Isotropic =    47.6819   Anisotropy =   101.7859

  8  C    Isotropic =    59.2543   Anisotropy =    91.6565

  9  N    Isotropic =   -69.3451   Anisotropy =   433.9030

 10  C    Isotropic =    42.6745   Anisotropy =   106.1617

 11  S    Isotropic =   265.0230   Anisotropy =   177.6863

 12  H    Isotropic =    25.0263   Anisotropy =     4.1806

 13  H    Isotropic =    24.9462   Anisotropy =     4.8423

 14  H    Isotropic =    24.9347   Anisotropy =     9.3764

 15  H    Isotropic =    24.6659   Anisotropy =     7.8884

 16  H    Isotropic =    24.9066   Anisotropy =     4.7699

 17  H    Isotropic =    24.4132   Anisotropy =     6.9934

 18  H    Isotropic =    24.0604   Anisotropy =     5.9658

  Exact polarizability: 175.969  -1.395 113.918  -1.164  -2.129  47.209
 Approx polarizability: 274.486 -10.959 219.614  -4.234  -0.556  77.391

                     1                      2                      3
                     A                      A                      A
 Frequencies --    48.0565               103.8354               132.8255
 Red. masses --     5.1081                 5.0542                 5.3081
 Frc consts  --     0.0070                 0.0321                 0.0552
 IR Inten    --     0.2018                 0.2240                 0.2932

                     4                      5                      6
                     A                      A                      A
 Frequencies --   272.4667               315.1051               374.0901
 Red. masses --     4.7400                 7.2755                 5.3931
 Frc consts  --     0.2073                 0.4256                 0.4447
 IR Inten    --     0.2182                 0.0860                 0.8858

                     7                      8                      9
                     A                      A                      A
 Frequencies --   415.1438               481.6671               564.4048
 Red. masses --     3.0025                 4.4292                 4.6409
 Frc consts  --     0.3049                 0.6054                 0.8710
 IR Inten    --     0.0163                 1.3673                 6.1133

                    10                     11                     12
                     A                      A                      A
 Frequencies --   618.4378               626.5825               634.3517
 Red. masses --     3.9646                10.1955                 6.2127
 Frc consts  --     0.8934                 2.3584                 1.4730
 IR Inten    --     4.0300                 4.0885                 0.5020

                    13                     14                     15
                     A                      A                      A
 Frequencies --   696.1142               709.3629               742.4561
 Red. masses --     6.8584                 1.9321                 7.7860
 Frc consts  --     1.9581                 0.5728                 2.5288
 IR Inten    --     5.5780                24.1336                 0.7420

                    16                     17                     18
                     A                      A                      A
 Frequencies --   776.7031               787.3079               856.1097
 Red. masses --     1.6665                 1.2537                 1.2534
 Frc consts  --     0.5923                 0.4579                 0.5413
 IR Inten    --    15.5850                45.2329                 0.2432

                    19                     20                     21
                     A                      A                      A
 Frequencies --   871.2047               873.9108               928.0624
 Red. masses --     3.5004                 1.6118                 1.4239
 Frc consts  --     1.5653                 0.7253                 0.7226
 IR Inten    --    31.0803                10.5963                 2.2292

                    22                     23                     24
                     A                      A                      A
 Frequencies --   968.1371               979.5492               997.1048
 Red. masses --     1.3497                 7.4247                 1.2596
 Frc consts  --     0.7454                 4.1974                 0.7378
 IR Inten    --     0.2278                10.6712                 0.1487

                    25                     26                     27
                     A                      A                      A
 Frequencies --  1016.0441              1063.0226              1114.6949
 Red. masses --     6.0413                 2.0585                 1.6209
 Frc consts  --     3.6746                 1.3705                 1.1866
 IR Inten    --     0.1091                 0.7657                 3.9792

                    28                     29                     30
                     A                      A                      A
 Frequencies --  1160.0924              1194.7612              1219.6264
 Red. masses --     2.1981                 1.0972                 1.1382
 Frc consts  --     1.7430                 0.9228                 0.9975
 IR Inten    --    10.3737                 0.0605                 0.1464

                    31                     32                     33
                     A                      A                      A
 Frequencies --  1249.3652              1287.7591              1328.8956
 Red. masses --     2.2392                 1.6218                 2.9233
 Frc consts  --     2.0593                 1.5846                 3.0416
 IR Inten    --    10.4354                 5.2070                 4.8377

                    34                     35                     36
                     A                      A                      A
 Frequencies --  1360.6574              1370.9509              1466.7488
 Red. masses --     2.7109                 1.5898                 6.0872
 Frc consts  --     2.9571                 1.7605                 7.7158
 IR Inten    --     1.3080                 1.0281                21.8683

                    37                     38                     39
                     A                      A                      A
 Frequencies --  1495.8025              1537.5115              1575.8866
 Red. masses --     2.4423                 2.4106                 4.6878
 Frc consts  --     3.2195                 3.3574                 6.8591
 IR Inten    --    18.5484                11.5003                10.0094

                    40                     41                     42
                     A                      A                      A
 Frequencies --  1633.9547              1661.3506              3184.3656
 Red. masses --     5.3183                 5.4868                 1.0850
 Frc consts  --     8.3658                 8.9226                 6.4825
 IR Inten    --     2.3710                 4.6703                 4.0569

                    43                     44                     45
                     A                      A                      A
 Frequencies --  3190.3343              3199.6799              3207.2733
 Red. masses --     1.0876                 1.0914                 1.0939
 Frc consts  --     6.5223                 6.5831                 6.6299
 IR Inten    --     1.6811                17.5375                26.6084

                    46                     47                     48
                     A                      A                      A
 Frequencies --  3214.7243              3235.4514              3245.5696
 Red. masses --     1.0978                 1.0921                 1.0942
 Frc consts  --     6.6846                 6.7360                 6.7910
 IR Inten    --    14.4582                 7.5175                 0.3493

 - Thermochemistry -
 -------------------
 Temperature   298.150 Kelvin.  Pressure   1.00000 Atm.
 Atom     1 has atomic number  6 and mass  12.00000

 Molecular mass:   161.02992 amu.
 Principal axes and moments of inertia in atomic units:
                           1         2         3
     Eigenvalues --   644.888213039.541733602.50709
           X            1.00000  -0.00055  -0.00050
           Y            0.00054   0.99984  -0.01805
           Z            0.00051   0.01805   0.99984
 This molecule is an asymmetric top.
 Rotational symmetry number  1.
 Warning -- assumption of classical behavior for rotation
           may cause significant error
 Rotational temperatures (Kelvin)      0.13431     0.02850     0.02404
 Rotational constants (GHZ):           2.79853     0.59375     0.50097
 Zero-point vibrational energy     358805.0 (Joules/Mol)
                                   85.75645 (Kcal/Mol)
 Warning -- explicit consideration of  10 degrees of freedom as
           vibrations may cause significant error
 Vibrational temperatures:     69.14   149.40   191.11   392.02   453.37
          (Kelvin)            538.23   597.30   693.01   812.05   889.79
                              901.51   912.69  1001.55  1020.61  1068.23
                             1117.50  1132.76  1231.75  1253.47  1257.36
                             1335.27  1392.93  1409.35  1434.61  1461.86
                             1529.45  1603.80  1669.11  1718.99  1754.77
                             1797.56  1852.80  1911.98  1957.68  1972.49
                             2110.32  2152.12  2212.13  2267.35  2350.89
                             2390.31  4581.59  4590.17  4603.62  4614.55
                             4625.27  4655.09  4669.64

 Zero-point correction=                           0.136662 (Hartree/Particle)
 Thermal correction to Energy=                    0.145132
 Thermal correction to Enthalpy=                  0.146076
 Thermal correction to Gibbs Free Energy=         0.102017
 Sum of electronic and zero-point Energies=           -799.969041
 Sum of electronic and thermal Energies=              -799.960570
 Sum of electronic and thermal Enthalpies=            -799.959626
 Sum of electronic and thermal Free Energies=         -800.003686

                     E (Thermal)             CV                S
                      KCal/Mol        Cal/Mol-Kelvin    Cal/Mol-Kelvin
 Total                   91.072             33.170             92.731
 Electronic               0.000              0.000              0.000
 Translational            0.889              2.981             41.138
 Rotational               0.889              2.981             30.336
 Vibrational             89.294             27.209             21.257
 Vibration     1          0.595              1.978              4.896
 Vibration     2          0.605              1.946              3.381
 Vibration     3          0.613              1.921              2.905
 Vibration     4          0.675              1.724              1.581
 Vibration     5          0.702              1.645              1.335
 Vibration     6          0.745              1.525              1.063
 Vibration     7          0.779              1.437              0.909
 Vibration     8          0.838              1.291              0.706
 Vibration     9          0.920              1.108              0.515
 Vibration    10          0.978              0.993              0.419

 Optimization completed.
    -- Stationary point found.
 Normal termination of Gaussian 09 at Mon Oct  4 14:09:01 2021.
 Gaussian 09:  AM64L-G09RevA.02 11-Jun-2009

 ----------------------------------------------------------------------
 #p TD(NStates=10, Root=1) b3lyp/6-31G* volume pop=NPA density=current
 Geom=AllCheck Guess=Read
 ----------------------------------------------------------------------

 c1ccc(cc1)c1cncs1_conf_0
 ------------------------
 Redundant internal coordinates taken from checkpoint file:
 C9H7NS_a4ea_conf_0.chk
 Charge =  0 Multiplicity = 1

                         Standard orientation:
 ---------------------------------------------------------------------
 Center     Atomic      Atomic             Coordinates (Angstroms)
 Number     Number       Type             X           Y           Z
 ---------------------------------------------------------------------
      1          6           0        3.499088   -0.064923   -0.003109
      2          6           0        2.734892   -1.196585    0.287053
      3          6           0        1.343853   -1.119783    0.305491
      4          6           0        0.686589    0.091021    0.025747
      5          6           0        1.467930    1.221421   -0.276366
      6          6           0        2.858564    1.144129   -0.282773
      7          6           0       -0.777478    0.196551    0.052860
      8          6           0       -1.555903    1.290885    0.347714
      9          7           0       -2.917604    1.122703    0.296134
     10          6           0       -3.211669   -0.099921   -0.035970
     11         16           0       -1.841062   -1.145849   -0.318625
     12          1           0        4.583766   -0.125253   -0.015346
     13          1           0        3.222381   -2.142312    0.507766
     14          1           0        0.760666   -2.001879    0.556160
     15          1           0        0.978155    2.157621   -0.527371
     16          1           0        3.443143    2.028964   -0.519908
     17          1           0       -1.160205    2.257173    0.639784
     18          1           0       -4.222877   -0.476413   -0.139910
 ---------------------------------------------------------------------

 SCF Done:  E(RB3LYP) =  -800.105702491     A.U. after    1 cycles

 Excitation energies and oscillator strengths:

 Excited State   1:      Singlet-A      4.5600 eV  271.89 nm  f=0.3984  <S**2>=0.000
      42 -> 43         0.69450
 This state for optimization and/or second-order correction.
 Total Energy, E(TD-HF/TD-KS) =  -799.938124286
 Copying the excited state density for this state as the 1-particle RhoCI density.

 Excited State   2:      Singlet-A      4.8351 eV  256.42 nm  f=0.0009  <S**2>=0.000
      41 -> 43         0.50858
      42 -> 44         0.47407

 Excited State   3:      Singlet-A      5.0417 eV  245.92 nm  f=0.0089  <S**2>=0.000
      39 -> 43         0.54124
      39 -> 45         0.11082
      40 -> 43         0.40640
      42 -> 44         0.10537

 Excited State   4:      Singlet-A      5.3888 eV  230.08 nm  f=0.0183  <S**2>=0.000
      40 -> 43         0.10539
      41 -> 43         0.29279
      42 -> 44        -0.30198
      42 -> 45         0.41018
      42 -> 46        -0.33588

 Excited State   5:      Singlet-A      5.5472 eV  223.51 nm  f=0.0109  <S**2>=0.000
      38 -> 43        -0.11092
      39 -> 43        -0.25291
      40 -> 43         0.18349
      41 -> 43        -0.32601
      41 -> 45        -0.11603
      42 -> 44         0.33497
      42 -> 45         0.36545

 Excited State   6:      Singlet-A      5.5888 eV  221.84 nm  f=0.0328  <S**2>=0.000
      38 -> 43         0.19399
      39 -> 43        -0.32428
      40 -> 43         0.46858
      42 -> 45        -0.28166
      42 -> 47        -0.11407

 Excited State   7:      Singlet-A      5.8100 eV  213.40 nm  f=0.0211  <S**2>=0.000
      38 -> 43        -0.24547
      40 -> 43         0.15152
      41 -> 43         0.13655
      41 -> 45         0.13101
      42 -> 44        -0.12080
      42 -> 45         0.16161
      42 -> 46         0.56652

 Excited State   8:      Singlet-A      6.2056 eV  199.79 nm  f=0.0387  <S**2>=0.000
      38 -> 43         0.47479
      40 -> 44        -0.10141
      40 -> 45         0.18556
      41 -> 44         0.38244
      42 -> 45         0.18646
      42 -> 46         0.11346

 Excited State   9:      Singlet-A      6.2793 eV  197.45 nm  f=0.0006  <S**2>=0.000
      38 -> 43         0.10052
      39 -> 44        -0.20448
      40 -> 44         0.50479
      40 -> 45        -0.10344
      40 -> 46         0.11485
      41 -> 45        -0.33429
      42 -> 46         0.12337

 Excited State  10:      Singlet-A      6.4122 eV  193.36 nm  f=0.0071  <S**2>=0.000
      38 -> 43        -0.17331
      38 -> 44        -0.17268
      39 -> 46         0.13018
      40 -> 45         0.41331
      40 -> 46        -0.23823
      41 -> 45        -0.37919

 The electronic state is 1-A.
 Alpha  occ. eigenvalues --  -88.91688 -14.33924 -10.25155 -10.23137 -10.21993
 Alpha  occ. eigenvalues --  -10.21547 -10.19924 -10.19921 -10.19826 -10.19808
 Alpha  occ. eigenvalues --  -10.19729  -7.97872  -5.94246  -5.93903  -5.93593
 Alpha  occ. eigenvalues --   -0.96360  -0.86632  -0.80963  -0.76572  -0.75213
 Alpha  occ. eigenvalues --   -0.72719  -0.62926  -0.61680  -0.57708  -0.56366
 Alpha  occ. eigenvalues --   -0.52870  -0.48805  -0.46141  -0.45490  -0.43044
 Alpha  occ. eigenvalues --   -0.42692  -0.41692  -0.40940  -0.37693  -0.36823
 Alpha  occ. eigenvalues --   -0.35929  -0.34589  -0.29590  -0.27571  -0.27185
 Alpha  occ. eigenvalues --   -0.25821  -0.22547
 Alpha virt. eigenvalues --   -0.04648  -0.01002   0.00452   0.02057   0.05950
 Alpha virt. eigenvalues --    0.08448   0.10441   0.12633   0.13607   0.15506
 Alpha virt. eigenvalues --    0.16106   0.16435   0.18255   0.18473   0.21843

 Mulliken atomic charges:
              1
     1  C   -0.123920
     2  C   -0.126343
     3  C   -0.183818
     4  C    0.162916
     5  C   -0.159237
     6  C   -0.131708
     7  C   -0.236042
     8  C    0.041974
     9  N   -0.361423
    10  C   -0.151941
    11  S    0.205826
    12  H    0.143567
    13  H    0.144902
    14  H    0.156924
    15  H    0.145833
    16  H    0.143532
    17  H    0.154086
    18  H    0.174872
 Sum of Mulliken atomic charges =  -0.00000

 Dipole moment (field-independent basis, Debye):
    X=              3.3035    Y=             -0.4177    Z=             -0.1098  Tot=              3.3317
 Quadrupole moment (field-independent basis, Debye-Ang):
   XX=            -65.1796   YY=            -66.8970   ZZ=            -73.7491
   XY=              4.8034   XZ=              1.2836   YZ=             -1.7327

 Summary of Natural Population Analysis:

                                       Natural Population
                Natural  -----------------------------------------------
    Atom  No    Charge         Core      Valence    Rydberg      Total
 -----------------------------------------------------------------------
      C    1   -0.20616      1.99909     4.19152    0.01555     6.20616
      C    2   -0.22184      1.99912     4.20819    0.01454     6.22184
      C    3   -0.21869      1.99906     4.20495    0.01468     6.21869
      C    4   -0.03912      1.99898     4.02319    0.01694     6.03912
      C    5   -0.19508      1.99905     4.18218    0.01384     6.19508
      C    6   -0.23424      1.99912     4.22042    0.01471     6.23424
      C    7   -0.25062      1.99893     4.23265    0.01904     6.25062
      C    8   -0.00198      1.99897     3.97795    0.02506     6.00198
      N    9   -0.46814      1.99943     5.44388    0.02484     7.46814
      C   10   -0.19462      1.99938     4.16577    0.02948     6.19462
      S   11    0.34577      9.99906     5.60536    0.04981    15.65423
      H   12    0.23909      0.00000     0.75989    0.00102     0.76091
      H   13    0.24356      0.00000     0.75560    0.00085     0.75644
      H   14    0.24559      0.00000     0.75291    0.00150     0.75441
      H   15    0.24088      0.00000     0.75771    0.00141     0.75912
      H   16    0.24327      0.00000     0.75588    0.00086     0.75673
      H   17    0.23264      0.00000     0.76619    0.00117     0.76736
      H   18    0.23971      0.00000     0.75902    0.00127     0.76029
 =======================================================================
   * Total *    0.00000     29.99019    53.76326    0.24655    84.00000

 Normal termination of Gaussian 09 at Mon Oct  4 17:50:30 2021.
