 Gaussian 09, Revision A.02,

 -----------------------------------
 #p opt b3lyp/6-31G* scf=(xqc,tight)
 -----------------------------------

 ---------------------------
 Cn1c([Li])cc2c1cccc2_conf_0
 ---------------------------
 Symbolic Z-matrix:
 Charge =  0 Multiplicity = 1

 SCF Done:  E(RB3LYP) =  -410.015131882     A.U. after   16 cycles
 SCF Done:  E(RB3LYP) =  -410.030185979     A.U. after   12 cycles
 SCF Done:  E(RB3LYP) =  -410.030862631     A.U. after   11 cycles
 SCF Done:  E(RB3LYP) =  -410.031009422     A.U. after   10 cycles
 SCF Done:  E(RB3LYP) =  -410.031158097     A.U. after   10 cycles
 SCF Done:  E(RB3LYP) =  -410.031332323     A.U. after   10 cycles
 SCF Done:  E(RB3LYP) =  -410.031490116     A.U. after   10 cycles
 SCF Done:  E(RB3LYP) =  -410.031522511     A.U. after   10 cycles
 Optimization completed.
    -- Stationary point found.
 Normal termination of Gaussian 09 at Sat Oct  2 20:45:03 2021.

 ----------------------------------------------------------------------
 #p freq b3lyp/6-31G* volume NMR pop=NPA density=current Geom=AllCheck
 Guess=Read
 ----------------------------------------------------------------------

 Cn1c([Li])cc2c1cccc2_conf_0
 ---------------------------
 Redundant internal coordinates taken from checkpoint file:
 C9H8LiN_47aa_conf_0.chk
 Charge =  0 Multiplicity = 1

 SCF Done:  E(RB3LYP) =  -410.031522511     A.U. after    1 cycles

  1  C    Isotropic =   150.2232   Anisotropy =    55.1492

  2  N    Isotropic =   116.3303   Anisotropy =    79.1139

  3  C    Isotropic =    29.4024   Anisotropy =   142.5847

  4  Li   Isotropic =    90.5382   Anisotropy =    15.6958

  5  C    Isotropic =    80.1852   Anisotropy =    99.8115

  6  C    Isotropic =    64.5570   Anisotropy =   151.6625

  7  C    Isotropic =    58.0711   Anisotropy =   144.9096

  8  C    Isotropic =    88.0688   Anisotropy =   137.1398

  9  C    Isotropic =    77.0157   Anisotropy =   149.4316

 10  C    Isotropic =    78.3780   Anisotropy =   149.6594

 11  C    Isotropic =    78.0375   Anisotropy =   143.4481

 12  H    Isotropic =    28.7152   Anisotropy =     7.1748

 13  H    Isotropic =    28.4510   Anisotropy =     9.1245

 14  H    Isotropic =    28.4512   Anisotropy =     9.1245

 15  H    Isotropic =    25.8666   Anisotropy =     3.5305

 16  H    Isotropic =    25.3525   Anisotropy =     7.2087

 17  H    Isotropic =    25.4173   Anisotropy =     5.0287

 18  H    Isotropic =    25.4484   Anisotropy =     4.7348

 19  H    Isotropic =    25.1377   Anisotropy =     5.8021

  Exact polarizability: 187.194 -11.616 119.840  -0.041   0.008  56.989
 Approx polarizability: 280.368 -11.321 197.584   0.026   0.012  80.078

                     1                      2                      3
                     A                      A                      A
 Frequencies --    57.1750                85.8499                88.0158
 Red. masses --     1.2235                 4.2782                 6.6375
 Frc consts  --     0.0024                 0.0186                 0.0303
 IR Inten    --     9.3631                50.7178                70.7177

                     4                      5                      6
                     A                      A                      A
 Frequencies --   142.2341               237.1245               259.4204
 Red. masses --     2.6147                 4.9531                 2.9942
 Frc consts  --     0.0312                 0.1641                 0.1187
 IR Inten    --     3.4989                 5.9256                 0.2475

                     7                      8                      9
                     A                      A                      A
 Frequencies --   278.6413               440.0071               467.9921
 Red. masses --     4.3395                 3.1481                 4.6030
 Frc consts  --     0.1985                 0.3591                 0.5940
 IR Inten    --     5.6088                 0.4255                30.0595

                    10                     11                     12
                     A                      A                      A
 Frequencies --   497.2006               572.1815               583.3963
 Red. masses --     5.3861                 5.6549                 4.1301
 Frc consts  --     0.7845                 1.0908                 0.8282
 IR Inten    --    11.7014                15.8716                 0.1634

                    13                     14                     15
                     A                      A                      A
 Frequencies --   615.8447               623.9744               729.8784
 Red. masses --     6.2764                 5.9403                 5.5330
 Frc consts  --     1.4025                 1.3627                 1.7367
 IR Inten    --     5.3274                24.9125                11.5692

                    16                     17                     18
                     A                      A                      A
 Frequencies --   738.6628               757.8903               780.9893
 Red. masses --     1.2470                 1.4402                 2.5289
 Frc consts  --     0.4009                 0.4874                 0.9088
 IR Inten    --     0.0788                66.4221                11.8021

                    19                     20                     21
                     A                      A                      A
 Frequencies --   800.9313               853.8892               902.0071
 Red. masses --     4.5253                 1.5922                 5.1679
 Frc consts  --     1.7103                 0.6840                 2.4773
 IR Inten    --    21.1611                 0.6549                 2.5017

                    22                     23                     24
                     A                      A                      A
 Frequencies --   910.1065               954.8090              1040.8743
 Red. masses --     1.3404                 1.2109                 2.0765
 Frc consts  --     0.6542                 0.6504                 1.3255
 IR Inten    --     2.0025                 0.0095                 1.4899

                    25                     26                     27
                     A                      A                      A
 Frequencies --  1054.9889              1120.6247              1158.1767
 Red. masses --     2.5357                 2.6063                 1.5297
 Frc consts  --     1.6628                 1.9284                 1.2090
 IR Inten    --    28.3151                 6.3479                 5.7119

                    28                     29                     30
                     A                      A                      A
 Frequencies --  1158.9175              1178.7588              1197.3527
 Red. masses --     1.2980                 1.2221                 1.4225
 Frc consts  --     1.0271                 1.0005                 1.2015
 IR Inten    --     0.6205                 1.8620                 5.0465

                    31                     32                     33
                     A                      A                      A
 Frequencies --  1258.7641              1308.7056              1344.7975
 Red. masses --     2.1187                 3.9430                 2.5734
 Frc consts  --     1.9779                 3.9788                 2.7420
 IR Inten    --    13.1018                39.8672                10.0252

                    34                     35                     36
                     A                      A                      A
 Frequencies --  1391.1875              1407.2425              1429.8811
 Red. masses --     3.4150                 6.9302                 3.3565
 Frc consts  --     3.8942                 8.0860                 4.0433
 IR Inten    --    30.0761                26.7751                29.9665

                    37                     38                     39
                     A                      A                      A
 Frequencies --  1476.2581              1507.1360              1509.5650
 Red. masses --     1.2901                 1.0425                 2.5156
 Frc consts  --     1.6566                 1.3952                 3.3775
 IR Inten    --     0.1644                 3.3468                30.5159

                    40                     41                     42
                     A                      A                      A
 Frequencies --  1529.8147              1544.4120              1623.6733
 Red. masses --     2.8871                 1.1011                 5.8179
 Frc consts  --     3.9810                 1.5474                 9.0368
 IR Inten    --    11.0030                10.7221                 1.3141

                    43                     44                     45
                     A                      A                      A
 Frequencies --  1655.4410              3020.4759              3064.0276
 Red. masses --     6.2376                 1.0371                 1.1046
 Frc consts  --    10.0716                 5.5748                 6.1101
 IR Inten    --     1.4654                86.1253                42.6040

                    46                     47                     48
                     A                      A                      A
 Frequencies --  3136.7827              3166.9249              3176.0638
 Red. masses --     1.0974                 1.0846                 1.0876
 Frc consts  --     6.3616                 6.4088                 6.4640
 IR Inten    --    18.7945                 3.3046                 2.9895

                    49                     50                     51
                     A                      A                      A
 Frequencies --  3181.5954              3186.9398              3199.1844
 Red. masses --     1.0921                 1.0928                 1.0966
 Frc consts  --     6.5132                 6.5394                 6.6125
 IR Inten    --    30.1957                63.7778                45.5868

 - Thermochemistry -
 -------------------
 Temperature   298.150 Kelvin.  Pressure   1.00000 Atm.
 Atom     1 has atomic number  6 and mass  12.00000

 Molecular mass:   137.08168 amu.
 Principal axes and moments of inertia in atomic units:
                           1         2         3
     Eigenvalues --   747.396901706.950252442.96648
           X            0.99815   0.06077  -0.00013
           Y           -0.06077   0.99815  -0.00010
           Z            0.00013   0.00011   1.00000
 This molecule is an asymmetric top.
 Rotational symmetry number  1.
 Warning -- assumption of classical behavior for rotation
           may cause significant error
 Rotational temperatures (Kelvin)      0.11589     0.05074     0.03545
 Rotational constants (GHZ):           2.41470     1.05729     0.73875
 Zero-point vibrational energy     385238.1 (Joules/Mol)
                                   92.07413 (Kcal/Mol)
 Warning -- explicit consideration of  13 degrees of freedom as
           vibrations may cause significant error
 Vibrational temperatures:     82.26   123.52   126.63   204.64   341.17
          (Kelvin)            373.25   400.90   633.07   673.34   715.36
                              823.24   839.38   886.06   897.76  1050.13
                             1062.77  1090.43  1123.67  1152.36  1228.55
                             1297.79  1309.44  1373.76  1497.58  1517.89
                             1612.33  1666.36  1667.42  1695.97  1722.72
                             1811.08  1882.93  1934.86  2001.61  2024.71
                             2057.28  2124.00  2168.43  2171.92  2201.06
                             2222.06  2336.10  2381.81  4345.79  4408.45
                             4513.13  4556.49  4569.64  4577.60  4585.29
                             4602.91

 Zero-point correction=                           0.146729 (Hartree/Particle)
 Thermal correction to Energy=                    0.156285
 Thermal correction to Enthalpy=                  0.157229
 Thermal correction to Gibbs Free Energy=         0.111424
 Sum of electronic and zero-point Energies=           -409.884793
 Sum of electronic and thermal Energies=              -409.875237
 Sum of electronic and thermal Enthalpies=            -409.874293
 Sum of electronic and thermal Free Energies=         -409.920098

                     E (Thermal)             CV                S
                      KCal/Mol        Cal/Mol-Kelvin    Cal/Mol-Kelvin
 Total                   98.070             35.680             96.405
 Electronic               0.000              0.000              0.000
 Translational            0.889              2.981             40.658
 Rotational               0.889              2.981             29.523
 Vibrational             96.293             29.719             26.223
 Vibration     1          0.596              1.975              4.552
 Vibration     2          0.601              1.959              3.752
 Vibration     3          0.601              1.958              3.704
 Vibration     4          0.616              1.911              2.774
 Vibration     5          0.656              1.784              1.824
 Vibration     6          0.668              1.747              1.666
 Vibration     7          0.679              1.713              1.542
 Vibration     8          0.800              1.383              0.827
 Vibration     9          0.825              1.321              0.743
 Vibration    10          0.853              1.256              0.665
 Vibration    11          0.928              1.091              0.500
 Vibration    12          0.940              1.067              0.479
 Vibration    13          0.975              0.998              0.423

 Normal termination of Gaussian 09 at Sat Oct  2 21:53:59 2021.
 Gaussian 09:  AM64L-G09RevA.02 11-Jun-2009

 ----------------------------------------------------------------------
 #p TD(NStates=10, Root=1) b3lyp/6-31G* volume pop=NPA density=current
 Geom=AllCheck Guess=Read
 ----------------------------------------------------------------------

 Cn1c([Li])cc2c1cccc2_conf_0
 ---------------------------
 Redundant internal coordinates taken from checkpoint file:
 C9H8LiN_47aa_conf_0.chk
 Charge =  0 Multiplicity = 1

                         Standard orientation:
 ---------------------------------------------------------------------
 Center     Atomic      Atomic             Coordinates (Angstroms)
 Number     Number       Type             X           Y           Z
 ---------------------------------------------------------------------
      1          6           0        2.078107    1.749696    0.000406
      2          7           0        1.363987    0.494589    0.000226
      3          6           0        1.954871   -0.775444    0.000222
      4          3           0        3.703987   -1.611082    0.000392
      5          6           0        0.894662   -1.683433   -0.000077
      6          6           0       -0.354283   -0.979308   -0.000156
      7          6           0       -0.013801    0.404230    0.000063
      8          6           0       -0.990783    1.407954    0.000051
      9          6           0       -2.326562    1.014857   -0.000188
     10          6           0       -2.684019   -0.348601   -0.000398
     11          6           0       -1.712004   -1.343179   -0.000384
     12          1           0        3.150110    1.538475    0.000547
     13          1           0        1.840179    2.349962    0.889540
     14          1           0        1.840436    2.350095   -0.888708
     15          1           0        0.995590   -2.765913   -0.000207
     16          1           0       -0.721349    2.461192    0.000198
     17          1           0       -3.106404    1.772425   -0.000223
     18          1           0       -3.736120   -0.623112   -0.000585
     19          1           0       -1.999446   -2.392645   -0.000554
 ---------------------------------------------------------------------

 SCF Done:  E(RB3LYP) =  -410.031522511     A.U. after    1 cycles

 Excitation energies and oscillator strengths:

 Excited State   1:      Singlet-A      2.1570 eV  574.79 nm  f=0.0086  <S**2>=0.000
      36 -> 37         0.70089
 This state for optimization and/or second-order correction.
 Total Energy, E(TD-HF/TD-KS) =  -409.952252927
 Copying the excited state density for this state as the 1-particle RhoCI density.

 Excited State   2:      Singlet-A      2.8798 eV  430.54 nm  f=0.0013  <S**2>=0.000
      35 -> 37         0.70189

 Excited State   3:      Singlet-A      3.6103 eV  343.41 nm  f=0.0002  <S**2>=0.000
      36 -> 39         0.70203

 Excited State   4:      Singlet-A      3.6316 eV  341.41 nm  f=0.0039  <S**2>=0.000
      34 -> 37         0.60353
      36 -> 38        -0.35019

 Excited State   5:      Singlet-A      3.7076 eV  334.41 nm  f=0.2674  <S**2>=0.000
      34 -> 37         0.35601
      36 -> 38         0.60556

 Excited State   6:      Singlet-A      4.1775 eV  296.79 nm  f=0.1090  <S**2>=0.000
      35 -> 38         0.69082
      36 -> 42        -0.14007

 Excited State   7:      Singlet-A      4.3030 eV  288.14 nm  f=0.0000  <S**2>=0.000
      35 -> 39         0.70355

 Excited State   8:      Singlet-A      4.4169 eV  280.71 nm  f=0.0012  <S**2>=0.000
      33 -> 37         0.70481

 Excited State   9:      Singlet-A      4.7046 eV  263.54 nm  f=0.0314  <S**2>=0.000
      33 -> 40        -0.10142
      35 -> 42        -0.13374
      36 -> 40         0.66743

 Excited State  10:      Singlet-A      4.9075 eV  252.64 nm  f=0.0539  <S**2>=0.000
      34 -> 38         0.69599
      36 -> 41         0.10999

 The electronic state is 1-A.
 Alpha  occ. eigenvalues --  -14.33565 -10.20163 -10.17600 -10.15613 -10.15268
 Alpha  occ. eigenvalues --  -10.15202 -10.14864 -10.14508 -10.14108 -10.13190
 Alpha  occ. eigenvalues --   -2.01283  -0.93518  -0.80494  -0.75392  -0.70955
 Alpha  occ. eigenvalues --   -0.67238  -0.64783  -0.56654  -0.54471  -0.52352
 Alpha  occ. eigenvalues --   -0.48032  -0.44325  -0.43141  -0.41266  -0.40464
 Alpha  occ. eigenvalues --   -0.38360  -0.37859  -0.35270  -0.35166  -0.32356
 Alpha  occ. eigenvalues --   -0.30001  -0.28714  -0.23604  -0.21943  -0.18116
 Alpha  occ. eigenvalues --   -0.16120
 Alpha virt. eigenvalues --   -0.05430  -0.00598  -0.00006   0.03513   0.05744
 Alpha virt. eigenvalues --    0.06052   0.10082   0.10495   0.11166   0.12898
 Alpha virt. eigenvalues --    0.14713   0.14885   0.16981   0.17557   0.18802

 Mulliken atomic charges:
              1
     1  C   -0.333520
     2  N   -0.497904
     3  C    0.010489
     4  Li  -0.236445
     5  C   -0.189945
     6  C    0.138356
     7  C    0.305652
     8  C   -0.142016
     9  C   -0.130885
    10  C   -0.135516
    11  C   -0.186317
    12  H    0.225312
    13  H    0.176002
    14  H    0.175968
    15  H    0.189093
    16  H    0.157525
    17  H    0.159643
    18  H    0.150741
    19  H    0.163765
 Sum of Mulliken atomic charges =  -0.00000

 Dipole moment (field-independent basis, Debye):
    X=             -9.6921    Y=              4.9635    Z=             -0.0326  Tot=             10.8892
 Quadrupole moment (field-independent basis, Debye-Ang):
   XX=           -104.4201   YY=            -63.0296   ZZ=            -68.6665
   XY=             24.2082   XZ=             -0.1535   YZ=              0.0775

 Summary of Natural Population Analysis:

                                       Natural Population
                Natural  -----------------------------------------------
    Atom  No    Charge         Core      Valence    Rydberg      Total
 -----------------------------------------------------------------------
      C    1   -0.46851      1.99946     4.45674    0.01231     6.46851
      N    2   -0.36657      1.99929     5.35595    0.01133     7.36657
      C    3   -0.16992      1.99943     4.14663    0.02385     6.16992
     Li    4   -0.05187      1.99792     1.05097    0.00297     3.05187
      C    5   -0.15944      1.99907     4.14777    0.01260     6.15944
      C    6   -0.13606      1.99902     4.12178    0.01526     6.13606
      C    7    0.18521      1.99901     3.79748    0.01830     5.81479
      C    8   -0.24612      1.99902     4.23473    0.01238     6.24612
      C    9   -0.16814      1.99913     4.15518    0.01383     6.16814
      C   10   -0.26810      1.99913     4.25506    0.01391     6.26810
      C   11   -0.13987      1.99903     4.12814    0.01269     6.13987
      H   12    0.26495      0.00000     0.73446    0.00059     0.73505
      H   13    0.23595      0.00000     0.76310    0.00096     0.76405
      H   14    0.23591      0.00000     0.76313    0.00096     0.76409
      H   15    0.24943      0.00000     0.75052    0.00005     0.75057
      H   16    0.25029      0.00000     0.74905    0.00066     0.74971
      H   17    0.24841      0.00000     0.75107    0.00051     0.75159
      H   18    0.24928      0.00000     0.75018    0.00054     0.75072
      H   19    0.24965      0.00000     0.74967    0.00067     0.75035
 =======================================================================
   * Total *   -0.00550     21.98952    49.86161    0.15437    72.00550

 Normal termination of Gaussian 09 at Sun Oct  3 01:28:49 2021.
