 Gaussian 09, Revision A.02,

 -----------------------------------
 #p opt b3lyp/6-31G* scf=(xqc,tight)
 -----------------------------------

 ------------------------
 c1ccc(cc1)n1cncc1_conf_0
 ------------------------
 Symbolic Z-matrix:
 Charge =  0 Multiplicity = 1

 SCF Done:  E(RB3LYP) =  -457.264122331     A.U. after   14 cycles
 SCF Done:  E(RB3LYP) =  -457.264984424     A.U. after   15 cycles
 SCF Done:  E(RB3LYP) =  -457.265448617     A.U. after   15 cycles
 SCF Done:  E(RB3LYP) =  -457.266200191     A.U. after   15 cycles
 SCF Done:  E(RB3LYP) =  -457.266621313     A.U. after   11 cycles
 SCF Done:  E(RB3LYP) =  -457.267220933     A.U. after   12 cycles
 SCF Done:  E(RB3LYP) =  -457.267312179     A.U. after   12 cycles
 SCF Done:  E(RB3LYP) =  -457.267327173     A.U. after   10 cycles
 SCF Done:  E(RB3LYP) =  -457.267328010     A.U. after    8 cycles
 SCF Done:  E(RB3LYP) =  -457.267328171     A.U. after    7 cycles
 Optimization completed.
    -- Stationary point found.
 Normal termination of Gaussian 09 at Sun Oct  3 22:40:01 2021.

 ----------------------------------------------------------------------
 #p freq b3lyp/6-31G* volume NMR pop=NPA density=current Geom=AllCheck
 Guess=Read
 ----------------------------------------------------------------------

 c1ccc(cc1)n1cncc1_conf_0
 ------------------------
 Redundant internal coordinates taken from checkpoint file:
 C9H8N2_8270_conf_0.chk
 Charge =  0 Multiplicity = 1

 SCF Done:  E(RB3LYP) =  -457.267328171     A.U. after    1 cycles

  1  C    Isotropic =    70.0843   Anisotropy =   165.9919

  2  C    Isotropic =    66.6709   Anisotropy =   167.1105

  3  C    Isotropic =    74.1983   Anisotropy =   144.6020

  4  C    Isotropic =    57.4998   Anisotropy =   134.6095

  5  C    Isotropic =    74.2462   Anisotropy =   144.3692

  6  C    Isotropic =    66.6901   Anisotropy =   167.0992

  7  N    Isotropic =    68.2737   Anisotropy =   137.2230

  8  C    Isotropic =    63.1972   Anisotropy =    79.1277

  9  N    Isotropic =   -12.7904   Anisotropy =   389.0231

 10  C    Isotropic =    64.8116   Anisotropy =   107.2660

 11  C    Isotropic =    79.0149   Anisotropy =    91.1980

 12  H    Isotropic =    25.0018   Anisotropy =     4.1191

 13  H    Isotropic =    24.8547   Anisotropy =     4.6761

 14  H    Isotropic =    25.0727   Anisotropy =     7.9963

 15  H    Isotropic =    25.0073   Anisotropy =     7.5616

 16  H    Isotropic =    24.8540   Anisotropy =     4.6675

 17  H    Isotropic =    24.8963   Anisotropy =     5.3657

 18  H    Isotropic =    25.2222   Anisotropy =     3.5240

 19  H    Isotropic =    25.4239   Anisotropy =     4.9540

  Exact polarizability: 150.139  -1.543 100.241  -0.884  -0.212  44.828
 Approx polarizability: 225.372   2.056 177.168   0.693  -0.525  71.160

                     1                      2                      3
                     A                      A                      A
 Frequencies --    68.0510               100.6262               138.0654
 Red. masses --     3.8283                 5.1578                 4.4471
 Frc consts  --     0.0104                 0.0308                 0.0499
 IR Inten    --     1.3286                 0.4376                 1.1039

                     4                      5                      6
                     A                      A                      A
 Frequencies --   295.3859               358.1368               421.6850
 Red. masses --     4.6304                 6.5888                 3.0821
 Frc consts  --     0.2380                 0.4979                 0.3229
 IR Inten    --     0.9828                 0.5117                 0.1779

                     7                      8                      9
                     A                      A                      A
 Frequencies --   427.6169               535.1334               624.7970
 Red. masses --     4.3216                 3.2456                 5.2590
 Frc consts  --     0.4656                 0.5476                 1.2096
 IR Inten    --     0.2319                 7.7569                 0.7760

                    10                     11                     12
                     A                      A                      A
 Frequencies --   643.4306               673.9955               701.2960
 Red. masses --     4.6089                 3.9065                 6.1404
 Frc consts  --     1.1242                 1.0456                 1.7793
 IR Inten    --     1.4330                15.1428                 7.3174

                    13                     14                     15
                     A                      A                      A
 Frequencies --   709.0125               725.0434               777.0926
 Red. masses --     2.1635                 1.2193                 1.6525
 Frc consts  --     0.6408                 0.3777                 0.5879
 IR Inten    --    21.2202                16.6931                45.0245

                    16                     17                     18
                     A                      A                      A
 Frequencies --   807.5497               850.8945               854.2757
 Red. masses --     1.3364                 1.2454                 1.3274
 Frc consts  --     0.5135                 0.5313                 0.5708
 IR Inten    --    20.7863                 0.0104                 2.4256

                    19                     20                     21
                     A                      A                      A
 Frequencies --   913.9332               923.2230               967.6569
 Red. masses --     6.4311                 1.4104                 1.3377
 Frc consts  --     3.1649                 0.7083                 0.7380
 IR Inten    --    11.5974                 3.7167                 0.1673

                    22                     23                     24
                     A                      A                      A
 Frequencies --   981.8356               996.0034              1019.0138
 Red. masses --     6.1601                 1.2531                 6.0356
 Frc consts  --     3.4988                 0.7324                 3.6926
 IR Inten    --    12.8212                 0.2052                 0.0947

                    25                     26                     27
                     A                      A                      A
 Frequencies --  1055.7217              1079.1205              1112.0219
 Red. masses --     2.3200                 1.6797                 1.5633
 Frc consts  --     1.5235                 1.1525                 1.1390
 IR Inten    --     0.6055                58.2860                 4.3780

                    28                     29                     30
                     A                      A                      A
 Frequencies --  1131.2359              1154.1367              1194.1136
 Red. masses --     1.4790                 3.3030                 1.0984
 Frc consts  --     1.1151                 2.5922                 0.9228
 IR Inten    --     6.5150                 9.1702                 0.2320

                    31                     32                     33
                     A                      A                      A
 Frequencies --  1210.7428              1278.1843              1297.9094
 Red. masses --     1.1324                 1.4267                 3.3442
 Frc consts  --     0.9781                 1.3734                 3.3192
 IR Inten    --     1.1696                23.0265                10.0171

                    34                     35                     36
                     A                      A                      A
 Frequencies --  1340.8569              1359.3890              1370.6568
 Red. masses --     2.3473                 7.8253                 1.5463
 Frc consts  --     2.4865                 8.5200                 1.7116
 IR Inten    --    68.8219                 3.3069                 2.1618

                    37                     38                     39
                     A                      A                      A
 Frequencies --  1418.6902              1505.5301              1526.0702
 Red. masses --     5.3305                 2.3817                 3.1272
 Frc consts  --     6.3211                 3.1806                 4.2909
 IR Inten    --     1.9531                 3.6081                57.6040

                    40                     41                     42
                     A                      A                      A
 Frequencies --  1554.1092              1562.4397              1648.1060
 Red. masses --     2.7013                 4.3431                 5.9778
 Frc consts  --     3.8440                 6.2468                 9.5667
 IR Inten    --   152.4289                 9.6309                 5.0143

                    43                     44                     45
                     A                      A                      A
 Frequencies --  1663.2181              3190.3000              3198.3934
 Red. masses --     5.6332                 1.0853                 1.0888
 Frc consts  --     9.1813                 6.5085                 6.5621
 IR Inten    --    38.5158                 1.3844                 7.8055

                    46                     47                     48
                     A                      A                      A
 Frequencies --  3209.1639              3215.7952              3220.0891
 Red. masses --     1.0917                 1.0941                 1.0975
 Frc consts  --     6.6246                 6.6663                 6.7051
 IR Inten    --    23.1696                14.0891                 4.4344

                    49                     50                     51
                     A                      A                      A
 Frequencies --  3263.1131              3273.0774              3299.4605
 Red. masses --     1.0925                 1.0958                 1.1026
 Frc consts  --     6.8537                 6.9165                 7.0720
 IR Inten    --     8.4348                 0.4315                 1.8635

 - Thermochemistry -
 -------------------
 Temperature   298.150 Kelvin.  Pressure   1.00000 Atm.
 Atom     1 has atomic number  6 and mass  12.00000

 Molecular mass:   144.06875 amu.
 Principal axes and moments of inertia in atomic units:
                           1         2         3
     Eigenvalues --   503.850772594.792252992.87457
           X            0.99997  -0.00726  -0.00304
           Y            0.00725   0.99997  -0.00198
           Z            0.00305   0.00196   0.99999
 This molecule is an asymmetric top.
 Rotational symmetry number  1.
 Warning -- assumption of classical behavior for rotation
           may cause significant error
 Rotational temperatures (Kelvin)      0.17190     0.03338     0.02894
 Rotational constants (GHZ):           3.58190     0.69552     0.60301
 Zero-point vibrational energy     399824.3 (Joules/Mol)
                                   95.56030 (Kcal/Mol)
 Warning -- explicit consideration of   8 degrees of freedom as
           vibrations may cause significant error
 Vibrational temperatures:     97.91   144.78   198.65   424.99   515.28
          (Kelvin)            606.71   615.24   769.94   898.94   925.75
                              969.73  1009.01  1020.11  1043.17  1118.06
                             1161.88  1224.25  1229.11  1314.94  1328.31
                             1392.24  1412.64  1433.02  1466.13  1518.95
                             1552.61  1599.95  1627.59  1660.54  1718.06
                             1741.99  1839.02  1867.40  1929.19  1955.86
                             1972.07  2041.18  2166.12  2195.67  2236.01
                             2248.00  2371.25  2393.00  4590.12  4601.77
                             4617.27  4626.81  4632.98  4694.89  4709.22
                             4747.18

 Zero-point correction=                           0.152285 (Hartree/Particle)
 Thermal correction to Energy=                    0.160374
 Thermal correction to Enthalpy=                  0.161318
 Thermal correction to Gibbs Free Energy=         0.118586
 Sum of electronic and zero-point Energies=           -457.115043
 Sum of electronic and thermal Energies=              -457.106954
 Sum of electronic and thermal Enthalpies=            -457.106010
 Sum of electronic and thermal Free Energies=         -457.148742

                     E (Thermal)             CV                S
                      KCal/Mol        Cal/Mol-Kelvin    Cal/Mol-Kelvin
 Total                  100.636             32.139             89.938
 Electronic               0.000              0.000              0.000
 Translational            0.889              2.981             40.806
 Rotational               0.889              2.981             29.749
 Vibrational             98.859             26.177             19.383
 Vibration     1          0.598              1.969              4.209
 Vibration     2          0.604              1.949              3.442
 Vibration     3          0.614              1.915              2.831
 Vibration     4          0.690              1.682              1.443
 Vibration     5          0.733              1.559              1.130
 Vibration     6          0.784              1.423              0.886
 Vibration     7          0.789              1.410              0.866
 Vibration     8          0.890              1.172              0.576

 Optimization completed.
    -- Stationary point found.
 Normal termination of Gaussian 09 at Sun Oct  3 23:27:45 2021.
 Gaussian 09:  AM64L-G09RevA.02 11-Jun-2009

 ----------------------------------------------------------------------
 #p TD(NStates=10, Root=1) b3lyp/6-31G* volume pop=NPA density=current
 Geom=AllCheck Guess=Read
 ----------------------------------------------------------------------

 c1ccc(cc1)n1cncc1_conf_0
 ------------------------
 Redundant internal coordinates taken from checkpoint file:
 C9H8N2_8270_conf_0.chk
 Charge =  0 Multiplicity = 1

                         Standard orientation:
 ---------------------------------------------------------------------
 Center     Atomic      Atomic             Coordinates (Angstroms)
 Number     Number       Type             X           Y           Z
 ---------------------------------------------------------------------
      1          6           0        3.206809    0.002161   -0.007468
      2          6           0        2.504438    1.178151   -0.277978
      3          6           0        1.110379    1.183777   -0.278921
      4          6           0        0.410799    0.007022    0.011835
      5          6           0        1.110307   -1.171556    0.295639
      6          6           0        2.504440   -1.170966    0.273878
      7          7           0       -1.009471    0.005512    0.015287
      8          6           0       -1.834789   -0.984072   -0.469215
      9          7           0       -3.106055   -0.684068   -0.339955
     10          6           0       -3.122416    0.557194    0.260195
     11          6           0       -1.847695    1.007624    0.482743
     12          1           0        4.292899    0.000502   -0.014428
     13          1           0        3.041690    2.095114   -0.503555
     14          1           0        0.562605    2.088473   -0.523489
     15          1           0        0.563571   -2.073409    0.552579
     16          1           0        3.041472   -2.089296    0.494211
     17          1           0       -1.436678   -1.876449   -0.932632
     18          1           0       -4.053297    1.052516    0.501764
     19          1           0       -1.457205    1.896431    0.953976
 ---------------------------------------------------------------------

 SCF Done:  E(RB3LYP) =  -457.267328171     A.U. after    1 cycles

 Excitation energies and oscillator strengths:

 Excited State   1:      Singlet-A      4.8814 eV  253.99 nm  f=0.0573  <S**2>=0.000
      37 -> 39         0.10626
      38 -> 39         0.68819
 This state for optimization and/or second-order correction.
 Total Energy, E(TD-HF/TD-KS) =  -457.087939366
 Copying the excited state density for this state as the 1-particle RhoCI density.

 Excited State   2:      Singlet-A      4.9316 eV  251.41 nm  f=0.0043  <S**2>=0.000
      35 -> 39        -0.15453
      38 -> 40         0.67477

 Excited State   3:      Singlet-A      5.2863 eV  234.54 nm  f=0.0012  <S**2>=0.000
      35 -> 39         0.29579
      36 -> 39        -0.19581
      37 -> 40         0.58516
      38 -> 40         0.15992

 Excited State   4:      Singlet-A      5.5362 eV  223.95 nm  f=0.2453  <S**2>=0.000
      35 -> 40        -0.11671
      37 -> 39         0.66106

 Excited State   5:      Singlet-A      5.6927 eV  217.80 nm  f=0.0137  <S**2>=0.000
      35 -> 39         0.31992
      36 -> 39         0.60104
      36 -> 41         0.12875

 Excited State   6:      Singlet-A      6.1293 eV  202.28 nm  f=0.0083  <S**2>=0.000
      35 -> 40         0.31206
      36 -> 40         0.62964

 Excited State   7:      Singlet-A      6.3391 eV  195.59 nm  f=0.0788  <S**2>=0.000
      34 -> 40         0.37413
      35 -> 39         0.43071
      36 -> 39        -0.20208
      37 -> 40        -0.33932

 Excited State   8:      Singlet-A      6.5562 eV  189.11 nm  f=0.1542  <S**2>=0.000
      34 -> 39        -0.27088
      35 -> 40         0.45454
      36 -> 40        -0.21142
      37 -> 41         0.16430
      38 -> 41        -0.33360
      38 -> 42         0.12118

 Excited State   9:      Singlet-A      6.6803 eV  185.60 nm  f=0.0410  <S**2>=0.000
      34 -> 39        -0.40811
      35 -> 40         0.17909
      37 -> 41        -0.22716
      38 -> 41         0.46948

 Excited State  10:      Singlet-A      6.9443 eV  178.54 nm  f=0.0798  <S**2>=0.000
      34 -> 39         0.20660
      34 -> 40         0.10033
      35 -> 40         0.14558
      36 -> 41         0.17986
      37 -> 41         0.49800
      37 -> 42        -0.13497
      38 -> 41         0.31354

 The electronic state is 1-A.
 Alpha  occ. eigenvalues --  -14.39923 -14.30971 -10.24873 -10.23561 -10.21204
 Alpha  occ. eigenvalues --  -10.20712 -10.20708 -10.20648 -10.20639 -10.20300
 Alpha  occ. eigenvalues --  -10.19589  -1.01823  -0.89964  -0.85260  -0.76539
 Alpha  occ. eigenvalues --   -0.75907  -0.73409  -0.64201  -0.62896  -0.58458
 Alpha  occ. eigenvalues --   -0.57517  -0.55792  -0.50795  -0.47386  -0.46466
 Alpha  occ. eigenvalues --   -0.44417  -0.43479  -0.43111  -0.42453  -0.40388
 Alpha  occ. eigenvalues --   -0.37851  -0.37423  -0.36145  -0.29950  -0.26761
 Alpha  occ. eigenvalues --   -0.26418  -0.24441  -0.22498
 Alpha virt. eigenvalues --   -0.02318  -0.01741   0.03884   0.06724   0.08407
 Alpha virt. eigenvalues --    0.12058   0.12347   0.14382   0.14645   0.15227
 Alpha virt. eigenvalues --    0.16898   0.17435   0.19251   0.20109   0.22785

 Mulliken atomic charges:
              1
     1  C   -0.189724
     2  C   -0.151981
     3  C   -0.179587
     4  C    0.199012
     5  C   -0.199552
     6  C   -0.137291
     7  N   -0.467223
     8  C    0.284067
     9  N   -0.419803
    10  C    0.020666
    11  C    0.120055
    12  H    0.084956
    13  H    0.095521
    14  H    0.080319
    15  H    0.082003
    16  H    0.099051
    17  H    0.231322
    18  H    0.206777
    19  H    0.241413
 Sum of Mulliken atomic charges =  -0.00000

 Dipole moment (field-independent basis, Debye):
    X=             -6.4270    Y=              1.7514    Z=              0.8534  Tot=              6.7158
 Quadrupole moment (field-independent basis, Debye-Ang):
   XX=            -66.6313   YY=            -57.0023   ZZ=            -65.5532
   XY=             -7.5693   XZ=             -3.5793   YZ=              2.1030

 Summary of Natural Population Analysis:

                                       Natural Population
                Natural  -----------------------------------------------
    Atom  No    Charge         Core      Valence    Rydberg      Total
 -----------------------------------------------------------------------
      C    1   -0.36904      1.99910     4.35114    0.01879     6.36904
      C    2   -0.25421      1.99911     4.23901    0.01609     6.25421
      C    3   -0.27362      1.99906     4.26047    0.01409     6.27362
      C    4   -0.06791      1.99892     4.04736    0.02163     6.06791
      C    5   -0.31030      1.99906     4.29578    0.01546     6.31030
      C    6   -0.22431      1.99911     4.20999    0.01522     6.22431
      N    7   -0.34751      1.99934     5.33537    0.01279     7.34751
      C    8    0.33868      1.99936     3.63424    0.02771     5.66132
      N    9   -0.51878      1.99952     5.49536    0.02390     7.51878
      C   10    0.06577      1.99923     3.91351    0.02150     5.93423
      C   11    0.10904      1.99916     3.87631    0.01548     5.89096
      H   12    0.21708      0.00000     0.78225    0.00067     0.78292
      H   13    0.22095      0.00000     0.77827    0.00078     0.77905
      H   14    0.20634      0.00000     0.79290    0.00076     0.79366
      H   15    0.20793      0.00000     0.79104    0.00103     0.79207
      H   16    0.22234      0.00000     0.77685    0.00081     0.77766
      H   17    0.25793      0.00000     0.74165    0.00042     0.74207
      H   18    0.25048      0.00000     0.74925    0.00026     0.74952
      H   19    0.26913      0.00000     0.73084    0.00003     0.73087
 =======================================================================
   * Total *    0.00000     21.99098    53.80159    0.20743    76.00000

 Normal termination of Gaussian 09 at Mon Oct  4 02:51:43 2021.
