 Gaussian 09, Revision A.02,

 -----------------------------------
 #p opt b3lyp/6-31G* scf=(xqc,tight)
 -----------------------------------

 -----------------------------
 [Li]c1ccc2c(c1)n(C)cc2_conf_0
 -----------------------------
 Symbolic Z-matrix:
 Charge =  0 Multiplicity = 1

 SCF Done:  E(RB3LYP) =  -410.002173319     A.U. after   15 cycles
 SCF Done:  E(RB3LYP) =  -410.014703325     A.U. after   12 cycles
 SCF Done:  E(RB3LYP) =  -410.015560035     A.U. after   11 cycles
 SCF Done:  E(RB3LYP) =  -410.015597660     A.U. after    9 cycles
 SCF Done:  E(RB3LYP) =  -410.015602644     A.U. after    8 cycles
 SCF Done:  E(RB3LYP) =  -410.015606334     A.U. after   16 cycles
 SCF Done:  E(RB3LYP) =  -410.015611759     A.U. after    8 cycles
 SCF Done:  E(RB3LYP) =  -410.015617999     A.U. after    9 cycles
 SCF Done:  E(RB3LYP) =  -410.015618441     A.U. after    8 cycles
 Optimization completed.
    -- Stationary point found.
 Normal termination of Gaussian 09 at Sat Oct  2 23:32:51 2021.

 ----------------------------------------------------------------------
 #p freq b3lyp/6-31G* volume NMR pop=NPA density=current Geom=AllCheck
 Guess=Read
 ----------------------------------------------------------------------

 [Li]c1ccc2c(c1)n(C)cc2_conf_0
 -----------------------------
 Redundant internal coordinates taken from checkpoint file:
 C9H8LiN_8d44_conf_0.chk
 Charge =  0 Multiplicity = 1

 SCF Done:  E(RB3LYP) =  -410.015618441     A.U. after    1 cycles

  1  Li   Isotropic =    90.6167   Anisotropy =    16.0114

  2  C    Isotropic =    39.4600   Anisotropy =   234.8584

  3  C    Isotropic =    61.5728   Anisotropy =   143.3401

  4  C    Isotropic =    77.5204   Anisotropy =   142.2666

  5  C    Isotropic =    69.0298   Anisotropy =   155.8599

  6  C    Isotropic =    61.6987   Anisotropy =   137.2661

  7  C    Isotropic =    74.6060   Anisotropy =   134.0304

  8  N    Isotropic =   136.3852   Anisotropy =    65.9073

  9  C    Isotropic =   159.7522   Anisotropy =    46.0016

 10  C    Isotropic =    73.8064   Anisotropy =    92.6013

 11  C    Isotropic =    92.6447   Anisotropy =   105.6057

 12  H    Isotropic =    24.7940   Anisotropy =     6.7810

 13  H    Isotropic =    25.3102   Anisotropy =     6.8955

 14  H    Isotropic =    24.8066   Anisotropy =     9.2130

 15  H    Isotropic =    28.5035   Anisotropy =     7.8979

 16  H    Isotropic =    28.8569   Anisotropy =    10.0489

 17  H    Isotropic =    28.8569   Anisotropy =    10.0471

 18  H    Isotropic =    25.7708   Anisotropy =     4.1637

 19  H    Isotropic =    26.1851   Anisotropy =     3.8170

  Exact polarizability: 178.364  19.839 133.034   0.025  -0.016  58.564
 Approx polarizability: 263.997  16.215 211.016  -0.002   0.001  81.883

 ******    1 imaginary frequencies (negative Signs) ******

                     1                      2                      3
                     A                      A                      A
 Frequencies --  -150.4864                97.7829               105.2366
 Red. masses --     1.0528                 5.3979                 6.4723
 Frc consts  --     0.0140                 0.0304                 0.0422
 IR Inten    --     0.1472                55.6670                76.4163

                     4                      5                      6
                     A                      A                      A
 Frequencies --   123.8716               230.9482               263.0220
 Red. masses --     3.1549                 4.5018                 4.8578
 Frc consts  --     0.0285                 0.1415                 0.1980
 IR Inten    --    21.1006                 5.7066                 6.9971

                     7                      8                      9
                     A                      A                      A
 Frequencies --   273.7959               424.6159               446.2045
 Red. masses --     3.2035                 2.9295                 5.1310
 Frc consts  --     0.1415                 0.3112                 0.6019
 IR Inten    --     5.4071                 6.6390                22.7283

                    10                     11                     12
                     A                      A                      A
 Frequencies --   494.8975               553.6922               590.0507
 Red. masses --     4.0480                 5.5225                 5.1150
 Frc consts  --     0.5841                 0.9975                 1.0492
 IR Inten    --    16.0924                 1.4309                10.1256

                    13                     14                     15
                     A                      A                      A
 Frequencies --   603.5550               642.4963               716.1210
 Red. masses --     4.1507                 6.3195                 1.2937
 Frc consts  --     0.8909                 1.5370                 0.3909
 IR Inten    --     3.9793                14.2500                27.3428

                    16                     17                     18
                     A                      A                      A
 Frequencies --   737.2729               783.4117               789.1017
 Red. masses --     6.0398                 3.1400                 5.3070
 Frc consts  --     1.9343                 1.1354                 1.9470
 IR Inten    --    13.9974                 0.6761                 0.0098

                    19                     20                     21
                     A                      A                      A
 Frequencies --   801.1983               828.7401               868.8119
 Red. masses --     1.4190                 1.3169                 1.4465
 Frc consts  --     0.5367                 0.5329                 0.6433
 IR Inten    --    20.0970                 5.7406                 0.0569

                    22                     23                     24
                     A                      A                      A
 Frequencies --   897.8597               941.9158              1026.9608
 Red. masses --     5.4641                 1.2900                 1.9173
 Frc consts  --     2.5953                 0.6743                 1.1914
 IR Inten    --     8.1676                 0.1231                 0.3505

                    25                     26                     27
                     A                      A                      A
 Frequencies --  1056.5953              1110.9525              1129.3432
 Red. masses --     2.7189                 1.3446                 2.2956
 Frc consts  --     1.7884                 0.9778                 1.7250
 IR Inten    --    13.3514                 5.8320                 5.2536

                    28                     29                     30
                     A                      A                      A
 Frequencies --  1155.7204              1171.0154              1237.9510
 Red. masses --     1.2838                 1.6424                 1.8046
 Frc consts  --     1.0103                 1.3269                 1.6295
 IR Inten    --     0.0207                 9.7097                 5.8236

                    31                     32                     33
                     A                      A                      A
 Frequencies --  1274.4980              1307.0209              1354.2282
 Red. masses --     1.7878                 3.6489                 2.0862
 Frc consts  --     1.7110                 3.6726                 2.2542
 IR Inten    --    48.6367                17.0042                26.3448

                    34                     35                     36
                     A                      A                      A
 Frequencies --  1366.8073              1421.7829              1459.9376
 Red. masses --     4.1230                 3.1823                 2.8552
 Frc consts  --     4.5382                 3.7901                 3.5855
 IR Inten    --    31.8567                 4.9974                36.5993

                    37                     38                     39
                     A                      A                      A
 Frequencies --  1482.4769              1501.3341              1514.3668
 Red. masses --     1.5064                 2.0265                 1.0423
 Frc consts  --     1.9506                 2.6912                 1.4083
 IR Inten    --    10.9007                14.8843                 3.9359

                    40                     41                     42
                     A                      A                      A
 Frequencies --  1543.9362              1559.9386              1597.3837
 Red. masses --     1.1163                 4.3330                 5.1365
 Frc consts  --     1.5678                 6.2123                 7.7221
 IR Inten    --    12.4925                20.5297                 5.0978

                    43                     44                     45
                     A                      A                      A
 Frequencies --  1639.2714              3035.5101              3082.0811
 Red. masses --     6.2314                 1.0384                 1.1055
 Frc consts  --     9.8659                 5.6375                 6.1872
 IR Inten    --     2.8684               102.7965                36.9063

                    46                     47                     48
                     A                      A                      A
 Frequencies --  3098.2356              3107.8486              3160.8241
 Red. masses --     1.0860                 1.0870                 1.0917
 Frc consts  --     6.1422                 6.1858                 6.4264
 IR Inten    --    42.8777                46.1815                53.6788

                    49                     50                     51
                     A                      A                      A
 Frequencies --  3163.6183              3243.0977              3263.1274
 Red. masses --     1.0961                 1.0884                 1.1032
 Frc consts  --     6.4636                 6.7444                 6.9214
 IR Inten    --     7.6729                 2.5309                15.7295

 - Thermochemistry -
 -------------------
 Temperature   298.150 Kelvin.  Pressure   1.00000 Atm.
 Atom     1 has atomic number  3 and mass   7.01600

 Molecular mass:   137.08168 amu.
 Principal axes and moments of inertia in atomic units:
                           1         2         3
     Eigenvalues --   795.962341712.734742497.27635
           X            0.99644  -0.08429  -0.00000
           Y            0.08429   0.99644   0.00000
           Z            0.00000  -0.00000   1.00000
 This molecule is an asymmetric top.
 Rotational symmetry number  1.
 Warning -- assumption of classical behavior for rotation
           may cause significant error
 Rotational temperatures (Kelvin)      0.10882     0.05057     0.03468
 Rotational constants (GHZ):           2.26737     1.05372     0.72268
    1 imaginary frequencies ignored.
 Zero-point vibrational energy     384482.6 (Joules/Mol)
                                   91.89354 (Kcal/Mol)
 Warning -- explicit consideration of  12 degrees of freedom as
           vibrations may cause significant error
 Vibrational temperatures:    140.69   151.41   178.22   332.28   378.43
          (Kelvin)            393.93   610.93   641.99   712.05   796.64
                              848.95   868.38   924.41  1030.34  1060.77
                             1127.15  1135.34  1152.74  1192.37  1250.03
                             1291.82  1355.21  1477.57  1520.20  1598.41
                             1624.87  1662.82  1684.83  1781.13  1833.72
                             1880.51  1948.43  1966.53  2045.63  2100.52
                             2132.95  2160.08  2178.83  2221.38  2244.40
                             2298.28  2358.54  4367.42  4434.42  4457.66
                             4471.50  4547.72  4551.74  4666.09  4694.91

 Zero-point correction=                           0.146442 (Hartree/Particle)
 Thermal correction to Energy=                    0.155218
 Thermal correction to Enthalpy=                  0.156162
 Thermal correction to Gibbs Free Energy=         0.112529
 Sum of electronic and zero-point Energies=           -409.869177
 Sum of electronic and thermal Energies=              -409.860401
 Sum of electronic and thermal Enthalpies=            -409.859457
 Sum of electronic and thermal Free Energies=         -409.903089

                     E (Thermal)             CV                S
                      KCal/Mol        Cal/Mol-Kelvin    Cal/Mol-Kelvin
 Total                   97.401             33.911             91.832
 Electronic               0.000              0.000              0.000
 Translational            0.889              2.981             40.658
 Rotational               0.889              2.981             29.611
 Vibrational             95.623             27.949             21.563
 Vibration     1          0.603              1.951              3.498
 Vibration     2          0.605              1.945              3.355
 Vibration     3          0.610              1.929              3.039
 Vibration     4          0.653              1.794              1.872
 Vibration     5          0.670              1.741              1.642
 Vibration     6          0.676              1.722              1.572
 Vibration     7          0.787              1.417              0.876
 Vibration     8          0.805              1.369              0.807
 Vibration     9          0.851              1.261              0.671
 Vibration    10          0.909              1.132              0.537
 Vibration    11          0.947              1.053              0.467
 Vibration    12          0.962              1.024              0.444

 Optimization completed.
    -- Stationary point found.
 Normal termination of Gaussian 09 at Sun Oct  3 00:40:01 2021.
 Gaussian 09:  AM64L-G09RevA.02 11-Jun-2009

 ----------------------------------------------------------------------
 #p TD(NStates=10, Root=1) b3lyp/6-31G* volume pop=NPA density=current
 Geom=AllCheck Guess=Read
 ----------------------------------------------------------------------

 [Li]c1ccc2c(c1)n(C)cc2_conf_0
 -----------------------------
 Redundant internal coordinates taken from checkpoint file:
 C9H8LiN_8d44_conf_0.chk
 Charge =  0 Multiplicity = 1

                         Standard orientation:
 ---------------------------------------------------------------------
 Center     Atomic      Atomic             Coordinates (Angstroms)
 Number     Number       Type             X           Y           Z
 ---------------------------------------------------------------------
      1          3           0        3.702674    2.098930    0.000007
      2          6           0        2.179302    0.852546    0.000007
      3          6           0        2.422711   -0.557696    0.000015
      4          6           0        1.422034   -1.522077    0.000020
      5          6           0        0.078344   -1.108645    0.000009
      6          6           0       -0.197578    0.286675   -0.000016
      7          6           0        0.828152    1.244380   -0.000010
      8          7           0       -1.581708    0.435898   -0.000063
      9          6           0       -2.321200    1.679217    0.000007
     10          6           0       -2.158342   -0.822609    0.000087
     11          6           0       -1.186205   -1.788062   -0.000058
     12          1           0        3.454431   -0.918133   -0.000001
     13          1           0        1.667865   -2.583262    0.000002
     14          1           0        0.561154    2.303218   -0.000025
     15          1           0       -1.620608    2.515562   -0.000385
     16          1           0       -2.956293    1.765194    0.890907
     17          1           0       -2.956923    1.764898   -0.890469
     18          1           0       -3.236462   -0.920680    0.000143
     19          1           0       -1.352536   -2.857241   -0.000125
 ---------------------------------------------------------------------

 SCF Done:  E(RB3LYP) =  -410.015618441     A.U. after    1 cycles

 Excitation energies and oscillator strengths:

 Excited State   1:      Singlet-A      2.4963 eV  496.67 nm  f=0.0059  <S**2>=0.000
      36 -> 37         0.69800
 This state for optimization and/or second-order correction.
 Total Energy, E(TD-HF/TD-KS) =  -409.923881329
 Copying the excited state density for this state as the 1-particle RhoCI density.

 Excited State   2:      Singlet-A      2.8963 eV  428.08 nm  f=0.0030  <S**2>=0.000
      35 -> 37         0.69927

 Excited State   3:      Singlet-A      2.9433 eV  421.25 nm  f=0.1098  <S**2>=0.000
      34 -> 37         0.70400

 Excited State   4:      Singlet-A      3.9669 eV  312.55 nm  f=0.0002  <S**2>=0.000
      36 -> 39         0.70146

 Excited State   5:      Singlet-A      3.9783 eV  311.65 nm  f=0.1129  <S**2>=0.000
      36 -> 38         0.69047

 Excited State   6:      Singlet-A      4.1994 eV  295.24 nm  f=0.0674  <S**2>=0.000
      34 -> 38         0.70261

 Excited State   7:      Singlet-A      4.2119 eV  294.37 nm  f=0.0333  <S**2>=0.000
      34 -> 39         0.69789

 Excited State   8:      Singlet-A      4.3238 eV  286.75 nm  f=0.1371  <S**2>=0.000
      35 -> 38         0.68822
      36 -> 42         0.11124

 Excited State   9:      Singlet-A      4.3476 eV  285.18 nm  f=0.0023  <S**2>=0.000
      35 -> 39         0.70120

 Excited State  10:      Singlet-A      4.5249 eV  274.01 nm  f=0.0005  <S**2>=0.000
      33 -> 37         0.70273

 The electronic state is 1-A.
 Alpha  occ. eigenvalues --  -14.34997 -10.21210 -10.18536 -10.17587 -10.14445
 Alpha  occ. eigenvalues --  -10.14389 -10.14293 -10.14221 -10.13544 -10.10767
 Alpha  occ. eigenvalues --   -1.99529  -0.95123  -0.79659  -0.75654  -0.70395
 Alpha  occ. eigenvalues --   -0.66870  -0.65385  -0.56990  -0.54157  -0.52322
 Alpha  occ. eigenvalues --   -0.48156  -0.44212  -0.44109  -0.42000  -0.40632
 Alpha  occ. eigenvalues --   -0.38657  -0.37519  -0.36015  -0.35771  -0.32934
 Alpha  occ. eigenvalues --   -0.29191  -0.28062  -0.23408  -0.18457  -0.17758
 Alpha  occ. eigenvalues --   -0.16274
 Alpha virt. eigenvalues --   -0.04816   0.00311   0.00676   0.03624   0.06124
 Alpha virt. eigenvalues --    0.06836   0.09536   0.10774   0.11996   0.12874
 Alpha virt. eigenvalues --    0.14300   0.14862   0.15205   0.17159   0.18021

 Mulliken atomic charges:
              1
     1  Li  -0.328904
     2  C   -0.025446
     3  C   -0.213446
     4  C   -0.137271
     5  C    0.085313
     6  C    0.340592
     7  C   -0.206129
     8  N   -0.478783
     9  C   -0.343021
    10  C    0.074936
    11  C   -0.198308
    12  H    0.153111
    13  H    0.151885
    14  H    0.161728
    15  H    0.207024
    16  H    0.194181
    17  H    0.194173
    18  H    0.188999
    19  H    0.179367
 Sum of Mulliken atomic charges =  -0.00000

 Dipole moment (field-independent basis, Debye):
    X=            -13.5984    Y=             -6.5660    Z=              0.0001  Tot=             15.1007
 Quadrupole moment (field-independent basis, Debye-Ang):
   XX=            -99.5881   YY=            -74.8281   ZZ=            -68.8518
   XY=            -34.6611   XZ=             -0.0000   YZ=              0.0003

 Summary of Natural Population Analysis:

                                       Natural Population
                Natural  -----------------------------------------------
    Atom  No    Charge         Core      Valence    Rydberg      Total
 -----------------------------------------------------------------------
     Li    1   -0.08776      1.99874     1.08612    0.00290     3.08776
      C    2   -0.33192      1.99934     4.30938    0.02320     6.33192
      C    3   -0.29589      1.99917     4.28077    0.01595     6.29589
      C    4   -0.12004      1.99900     4.10853    0.01252     6.12004
      C    5   -0.11791      1.99901     4.10387    0.01502     6.11791
      C    6    0.13642      1.99898     3.84670    0.01791     5.86358
      C    7   -0.18509      1.99904     4.17176    0.01429     6.18509
      N    8   -0.33308      1.99929     5.32324    0.01055     7.33308
      C    9   -0.47379      1.99946     4.46214    0.01219     6.47379
      C   10    0.03502      1.99915     3.94851    0.01731     5.96498
      C   11   -0.19898      1.99904     4.18734    0.01260     6.19898
      H   12    0.24013      0.00000     0.75912    0.00075     0.75987
      H   13    0.24063      0.00000     0.75821    0.00116     0.75937
      H   14    0.22958      0.00000     0.76946    0.00096     0.77042
      H   15    0.25567      0.00000     0.74376    0.00057     0.74433
      H   16    0.24770      0.00000     0.75160    0.00070     0.75230
      H   17    0.24770      0.00000     0.75160    0.00070     0.75230
      H   18    0.24743      0.00000     0.75233    0.00024     0.75257
      H   19    0.26017      0.00000     0.73959    0.00024     0.73983
 =======================================================================
   * Total *   -0.00401     21.99023    49.85402    0.15977    72.00401

 Normal termination of Gaussian 09 at Sun Oct  3 03:51:30 2021.
