 Gaussian 09, Revision A.02,

 -----------------------------------
 #p opt b3lyp/6-31G* scf=(xqc,tight)
 -----------------------------------

 ----------------------
 O=C=NCCc1ccccc1_conf_0
 ----------------------
 Symbolic Z-matrix:
 Charge =  0 Multiplicity = 1

 SCF Done:  E(RB3LYP) =  -478.342536201     A.U. after   14 cycles
 SCF Done:  E(RB3LYP) =  -478.352184921     A.U. after   14 cycles
 SCF Done:  E(RB3LYP) =  -478.352368733     A.U. after   13 cycles
 SCF Done:  E(RB3LYP) =  -478.354201299     A.U. after   13 cycles
 SCF Done:  E(RB3LYP) =  -478.354781631     A.U. after   12 cycles
 SCF Done:  E(RB3LYP) =  -478.355137092     A.U. after   13 cycles
 SCF Done:  E(RB3LYP) =  -478.355155732     A.U. after   12 cycles
 SCF Done:  E(RB3LYP) =  -478.355158075     A.U. after    9 cycles
 SCF Done:  E(RB3LYP) =  -478.355158197     A.U. after    7 cycles
 Optimization completed.
    -- Stationary point found.
 Normal termination of Gaussian 09 at Mon Oct  4 04:06:57 2021.

 ----------------------------------------------------------------------
 #p freq b3lyp/6-31G* volume NMR pop=NPA density=current Geom=AllCheck
 Guess=Read
 ----------------------------------------------------------------------

 O=C=NCCc1ccccc1_conf_0
 ----------------------
 Redundant internal coordinates taken from checkpoint file:
 C9H9NO_8b80_conf_0.chk
 Charge =  0 Multiplicity = 1

 SCF Done:  E(RB3LYP) =  -478.355158197     A.U. after    1 cycles

  1  O    Isotropic =   205.0120   Anisotropy =   260.9300

  2  C    Isotropic =    80.0272   Anisotropy =   294.7460

  3  N    Isotropic =   222.9130   Anisotropy =   184.5216

  4  C    Isotropic =   143.6301   Anisotropy =    49.8208

  5  C    Isotropic =   150.4232   Anisotropy =    35.7489

  6  C    Isotropic =    58.9455   Anisotropy =   179.1290

  7  C    Isotropic =    67.4609   Anisotropy =   152.4789

  8  C    Isotropic =    67.9600   Anisotropy =   165.5953

  9  C    Isotropic =    69.5457   Anisotropy =   167.2628

 10  C    Isotropic =    67.9560   Anisotropy =   165.5936

 11  C    Isotropic =    67.4536   Anisotropy =   152.4264

 12  H    Isotropic =    28.7004   Anisotropy =     5.5229

 13  H    Isotropic =    28.7024   Anisotropy =     5.5170

 14  H    Isotropic =    29.5251   Anisotropy =     4.7609

 15  H    Isotropic =    29.5214   Anisotropy =     4.7555

 16  H    Isotropic =    25.1356   Anisotropy =     7.3711

 17  H    Isotropic =    25.0075   Anisotropy =     4.7134

 18  H    Isotropic =    25.0582   Anisotropy =     4.1274

 19  H    Isotropic =    25.0079   Anisotropy =     4.7119

 20  H    Isotropic =    25.1356   Anisotropy =     7.3675

  Exact polarizability: 144.352  -0.048  91.859 -10.552   0.026  54.463
 Approx polarizability: 206.046  -0.166 155.005 -14.308   0.020  85.289

                     1                      2                      3
                     A                      A                      A
 Frequencies --    10.3814                41.9255                60.5214
 Red. masses --     7.7534                 2.9201                 6.4545
 Frc consts  --     0.0005                 0.0030                 0.0139
 IR Inten    --     0.0577                 0.0182                 0.6209

                     4                      5                      6
                     A                      A                      A
 Frequencies --   102.8951               136.1193               266.5578
 Red. masses --     2.8042                 6.3379                 6.2291
 Frc consts  --     0.0175                 0.0692                 0.2608
 IR Inten    --     5.2347                 2.8288                 1.4114

                     7                      8                      9
                     A                      A                      A
 Frequencies --   308.7390               347.2817               416.8670
 Red. masses --     4.5157                 2.4214                 2.9916
 Frc consts  --     0.2536                 0.1721                 0.3063
 IR Inten    --    20.2962                 0.6148                 0.0010

                    10                     11                     12
                     A                      A                      A
 Frequencies --   513.2640               567.4997               587.4999
 Red. masses --     3.3034                12.5466                 5.6558
 Frc consts  --     0.5127                 2.3807                 1.1502
 IR Inten    --    13.3071                22.3051                10.7532

                    13                     14                     15
                     A                      A                      A
 Frequencies --   626.0176               636.6226               716.5418
 Red. masses --     9.6537                 6.3454                 1.9166
 Frc consts  --     2.2290                 1.5152                 0.5798
 IR Inten    --    31.7718                 0.0227                26.0024

                    16                     17                     18
                     A                      A                      A
 Frequencies --   766.8833               785.1418               823.5697
 Red. masses --     1.8046                 1.1522                 4.8094
 Frc consts  --     0.6253                 0.4185                 1.9219
 IR Inten    --    19.4142                 0.0001                 6.7420

                    19                     20                     21
                     A                      A                      A
 Frequencies --   861.8931               910.8836               940.7125
 Red. masses --     1.2470                 2.0124                 2.4297
 Frc consts  --     0.5458                 0.9838                 1.2668
 IR Inten    --     0.0043                11.0342                16.4966

                    22                     23                     24
                     A                      A                      A
 Frequencies --   966.9216               996.8000              1018.4790
 Red. masses --     1.3493                 1.2550                 6.2603
 Frc consts  --     0.7432                 0.7347                 3.8260
 IR Inten    --     0.0030                 0.1878                 0.9130

                    25                     26                     27
                     A                      A                      A
 Frequencies --  1037.2369              1051.4382              1059.0168
 Red. masses --     1.6258                 4.0636                 2.2322
 Frc consts  --     1.0305                 2.6468                 1.4750
 IR Inten    --     0.0062                23.4962                 5.2951

                    28                     29                     30
                     A                      A                      A
 Frequencies --  1121.0506              1193.3858              1214.2544
 Red. masses --     1.5107                 1.1021                 1.1502
 Frc consts  --     1.1186                 0.9248                 0.9992
 IR Inten    --     4.6714                 0.0280                 0.1277

                    31                     32                     33
                     A                      A                      A
 Frequencies --  1215.3692              1232.5389              1327.0717
 Red. masses --     1.1868                 2.4481                 1.3928
 Frc consts  --     1.0329                 2.1912                 1.4452
 IR Inten    --     0.0000                 0.8444                29.9211

                    34                     35                     36
                     A                      A                      A
 Frequencies --  1329.2366              1361.2648              1370.9180
 Red. masses --     1.2309                 4.0850                 1.2538
 Frc consts  --     1.2814                 4.4599                 1.3883
 IR Inten    --     0.0833                 0.0219                 0.5806

                    37                     38                     39
                     A                      A                      A
 Frequencies --  1411.0807              1489.2106              1501.9180
 Red. masses --     1.3680                10.7340                 2.1967
 Frc consts  --     1.6049                14.0257                 2.9196
 IR Inten    --    74.8199                26.0324                 5.4340

                    40                     41                     42
                     A                      A                      A
 Frequencies --  1516.5318              1530.4840              1547.3228
 Red. masses --     1.1098                 1.0971                 2.2373
 Frc consts  --     1.5039                 1.5140                 3.1559
 IR Inten    --     5.3465                10.4463                 8.3392

                    43                     44                     45
                     A                      A                      A
 Frequencies --  1644.0892              1666.5280              2388.2559
 Red. masses --     5.4465                 5.5960                12.3024
 Frc consts  --     8.6740                 9.1571                41.3429
 IR Inten    --     0.9644                 3.1387              1227.7192

                    46                     47                     48
                     A                      A                      A
 Frequencies --  3041.4210              3062.0116              3078.9056
 Red. masses --     1.0568                 1.0596                 1.1067
 Frc consts  --     5.7595                 5.8533                 6.1811
 IR Inten    --    19.3327                35.1759                 5.4503

                    49                     50                     51
                     A                      A                      A
 Frequencies --  3109.2734              3173.5439              3174.4543
 Red. masses --     1.1072                 1.0864                 1.0879
 Frc consts  --     6.3067                 6.4465                 6.4594
 IR Inten    --    26.1051                10.8341                 7.0619

                    52                     53                     54
                     A                      A                      A
 Frequencies --  3188.6030              3197.9083              3210.0945
 Red. masses --     1.0893                 1.0936                 1.0978
 Frc consts  --     6.5253                 6.5896                 6.6652
 IR Inten    --     5.8343                37.7306                20.7307

 - Thermochemistry -
 -------------------
 Temperature   298.150 Kelvin.  Pressure   1.00000 Atm.
 Atom     1 has atomic number  8 and mass  15.99491

 Molecular mass:   147.06841 amu.
 Principal axes and moments of inertia in atomic units:
                           1         2         3
     Eigenvalues --   443.538734520.962274730.85380
           X            0.99999   0.00002  -0.00500
           Y           -0.00002   1.00000   0.00021
           Z            0.00500  -0.00021   0.99999
 This molecule is an asymmetric top.
 Rotational symmetry number  1.
 Warning -- assumption of classical behavior for rotation
           may cause significant error
 Rotational temperatures (Kelvin)      0.19528     0.01916     0.01831
 Rotational constants (GHZ):           4.06896     0.39919     0.38148
 Zero-point vibrational energy     423803.6 (Joules/Mol)
                                  101.29150 (Kcal/Mol)
 Warning -- explicit consideration of  12 degrees of freedom as
           vibrations may cause significant error
 Vibrational temperatures:     14.94    60.32    87.08   148.04   195.85
          (Kelvin)            383.52   444.21   499.66   599.78   738.47
                              816.50   845.28   900.70   915.96  1030.94
                             1103.37  1129.64  1184.93  1240.07  1310.56
                             1353.47  1391.18  1434.17  1465.36  1492.35
                             1512.78  1523.69  1612.94  1717.01  1747.04
                             1748.64  1773.35  1909.36  1912.47  1958.55
                             1972.44  2030.23  2142.64  2160.92  2181.95
                             2202.02  2226.25  2365.47  2397.76  3436.16
                             4375.92  4405.55  4429.85  4473.55  4566.02
                             4567.33  4587.68  4601.07  4618.60

 Zero-point correction=                           0.161418 (Hartree/Particle)
 Thermal correction to Energy=                    0.171485
 Thermal correction to Enthalpy=                  0.172429
 Thermal correction to Gibbs Free Energy=         0.122529
 Sum of electronic and zero-point Energies=           -478.193740
 Sum of electronic and thermal Energies=              -478.183674
 Sum of electronic and thermal Enthalpies=            -478.182729
 Sum of electronic and thermal Free Energies=         -478.232629

                     E (Thermal)             CV                S
                      KCal/Mol        Cal/Mol-Kelvin    Cal/Mol-Kelvin
 Total                  107.608             35.996            105.023
 Electronic               0.000              0.000              0.000
 Translational            0.889              2.981             40.868
 Rotational               0.889              2.981             30.629
 Vibrational            105.831             30.035             33.526
 Vibration     1          0.593              1.987              7.937
 Vibration     2          0.595              1.980              5.166
 Vibration     3          0.597              1.973              4.440
 Vibration     4          0.605              1.947              3.399
 Vibration     5          0.614              1.917              2.858
 Vibration     6          0.672              1.734              1.618
 Vibration     7          0.698              1.657              1.369
 Vibration     8          0.725              1.581              1.178
 Vibration     9          0.780              1.434              0.903
 Vibration    10          0.868              1.221              0.626
 Vibration    11          0.923              1.102              0.509
 Vibration    12          0.945              1.058              0.472

 Normal termination of Gaussian 09 at Mon Oct  4 04:52:29 2021.
 Gaussian 09:  AM64L-G09RevA.02 11-Jun-2009

 ----------------------------------------------------------------------
 #p TD(NStates=10, Root=1) b3lyp/6-31G* volume pop=NPA density=current
 Geom=AllCheck Guess=Read
 ----------------------------------------------------------------------

 O=C=NCCc1ccccc1_conf_0
 ----------------------
 Redundant internal coordinates taken from checkpoint file:
 C9H9NO_8b80_conf_0.chk
 Charge =  0 Multiplicity = 1

                         Standard orientation:
 ---------------------------------------------------------------------
 Center     Atomic      Atomic             Coordinates (Angstroms)
 Number     Number       Type             X           Y           Z
 ---------------------------------------------------------------------
      1          8           0       -5.049604    0.005044   -0.495333
      2          6           0       -3.905202    0.000772   -0.202551
      3          7           0       -2.781330   -0.004873    0.235141
      4          6           0       -1.414784   -0.001361   -0.245782
      5          6           0       -0.428184   -0.004574    0.933657
      6          6           0        1.008363   -0.001855    0.457452
      7          6           0        1.681118    1.203383    0.214137
      8          6           0        2.991265    1.208614   -0.265978
      9          6           0        3.651747    0.003382   -0.510938
     10          6           0        2.994437   -1.204449   -0.270351
     11          6           0        1.684266   -1.204420    0.209754
     12          1           0       -1.242808    0.885258   -0.868740
     13          1           0       -1.240922   -0.883282   -0.874837
     14          1           0       -0.628502   -0.887687    1.551228
     15          1           0       -0.629874    0.874038    1.557182
     16          1           0        1.175253    2.146695    0.410091
     17          1           0        3.497512    2.153810   -0.443810
     18          1           0        4.673304    0.005386   -0.881409
     19          1           0        3.503179   -2.147655   -0.451606
     20          1           0        1.180844   -2.149755    0.402177
 ---------------------------------------------------------------------

 SCF Done:  E(RB3LYP) =  -478.355158197     A.U. after    1 cycles

 Excitation energies and oscillator strengths:

 Excited State   1:      Singlet-A      5.4360 eV  228.08 nm  f=0.0002  <S**2>=0.000
      38 -> 40         0.48271
      39 -> 41         0.51321
 This state for optimization and/or second-order correction.
 Total Energy, E(TD-HF/TD-KS) =  -478.155387829
 Copying the excited state density for this state as the 1-particle RhoCI density.

 Excited State   2:      Singlet-A      6.1282 eV  202.32 nm  f=0.0430  <S**2>=0.000
      38 -> 41        -0.41492
      39 -> 40         0.56886

 Excited State   3:      Singlet-A      6.3360 eV  195.68 nm  f=0.0000  <S**2>=0.000
      37 -> 40         0.32525
      37 -> 42         0.60552
      38 -> 42         0.12794

 Excited State   4:      Singlet-A      6.7742 eV  183.02 nm  f=0.0053  <S**2>=0.000
      37 -> 40         0.60719
      37 -> 42        -0.31585
      38 -> 40         0.11733

 Excited State   5:      Singlet-A      6.7828 eV  182.79 nm  f=0.1205  <S**2>=0.000
      37 -> 41         0.41104
      38 -> 41         0.24489
      39 -> 40         0.16465
      39 -> 42         0.47152

 Excited State   6:      Singlet-A      6.8400 eV  181.26 nm  f=0.0013  <S**2>=0.000
      37 -> 41         0.55004
      39 -> 42        -0.43619

 Excited State   7:      Singlet-A      6.9867 eV  177.46 nm  f=0.1210  <S**2>=0.000
      36 -> 41         0.14409
      38 -> 40         0.34806
      38 -> 42         0.49857
      39 -> 41        -0.29812

 Excited State   8:      Singlet-A      7.0612 eV  175.59 nm  f=0.2423  <S**2>=0.000
      36 -> 40         0.52467
      37 -> 41         0.13076
      38 -> 41        -0.31687
      39 -> 40        -0.22114
      39 -> 42         0.21530

 Excited State   9:      Singlet-A      7.1494 eV  173.42 nm  f=0.0999  <S**2>=0.000
      36 -> 41         0.43633
      37 -> 42         0.11586
      38 -> 40         0.20432
      38 -> 42        -0.42240
      39 -> 41        -0.25130

 Excited State  10:      Singlet-A      7.1951 eV  172.32 nm  f=0.4023  <S**2>=0.000
      36 -> 40         0.32266
      36 -> 42         0.33582
      37 -> 43        -0.27635
      38 -> 41         0.34442
      39 -> 40         0.25899
      39 -> 42        -0.11068

 The electronic state is 1-A.
 Alpha  occ. eigenvalues --  -19.18798 -14.35740 -10.31952 -10.24920 -10.20304
 Alpha  occ. eigenvalues --  -10.19991 -10.19531 -10.19521 -10.19432 -10.19429
 Alpha  occ. eigenvalues --  -10.19395  -1.09003  -0.94902  -0.86114  -0.80044
 Alpha  occ. eigenvalues --   -0.74842  -0.74135  -0.66095  -0.61011  -0.58568
 Alpha  occ. eigenvalues --   -0.54150  -0.51427  -0.49249  -0.48823  -0.46197
 Alpha  occ. eigenvalues --   -0.45599  -0.45300  -0.42925  -0.42324  -0.40930
 Alpha  occ. eigenvalues --   -0.40612  -0.37275  -0.36040  -0.34623  -0.34316
 Alpha  occ. eigenvalues --   -0.29292  -0.27639  -0.25457  -0.24879
 Alpha virt. eigenvalues --   -0.00789  -0.00602   0.02389   0.06106   0.08445
 Alpha virt. eigenvalues --    0.10945   0.11787   0.12123   0.14468   0.15544
 Alpha virt. eigenvalues --    0.15729   0.16186   0.18206   0.18834   0.20085

 Mulliken atomic charges:
              1
     1  O   -0.412188
     2  C    0.599818
     3  N   -0.424953
     4  C   -0.127668
     5  C   -0.354304
     6  C    0.156290
     7  C   -0.181655
     8  C   -0.134622
     9  C   -0.130252
    10  C   -0.134608
    11  C   -0.181679
    12  H    0.168355
    13  H    0.168438
    14  H    0.160025
    15  H    0.159999
    16  H    0.130417
    17  H    0.135696
    18  H    0.136754
    19  H    0.135695
    20  H    0.130443
 Sum of Mulliken atomic charges =  -0.00000

 Dipole moment (field-independent basis, Debye):
    X=              2.9981    Y=              0.0015    Z=             -0.3788  Tot=              3.0220
 Quadrupole moment (field-independent basis, Debye-Ang):
   XX=            -78.8140   YY=            -58.8993   ZZ=            -65.1021
   XY=              0.0111   XZ=             -2.4280   YZ=              0.0154

 Summary of Natural Population Analysis:

                                       Natural Population
                Natural  -----------------------------------------------
    Atom  No    Charge         Core      Valence    Rydberg      Total
 -----------------------------------------------------------------------
      O    1   -0.51940      1.99981     6.49605    0.02354     8.51940
      C    2    0.85410      1.99926     3.11945    0.02719     5.14590
      N    3   -0.56982      1.99912     5.55399    0.01670     7.56982
      C    4   -0.25265      1.99922     4.23932    0.01411     6.25265
      C    5   -0.48121      1.99927     4.46705    0.01488     6.48121
      C    6   -0.02620      1.99906     4.00826    0.01888     6.02620
      C    7   -0.22679      1.99907     4.21019    0.01753     6.22679
      C    8   -0.22831      1.99915     4.21059    0.01857     6.22831
      C    9   -0.21941      1.99914     4.20273    0.01754     6.21941
      C   10   -0.22832      1.99915     4.21060    0.01857     6.22832
      C   11   -0.22674      1.99907     4.21014    0.01753     6.22674
      H   12    0.23914      0.00000     0.75868    0.00218     0.76086
      H   13    0.23924      0.00000     0.75858    0.00218     0.76076
      H   14    0.24869      0.00000     0.74896    0.00235     0.75131
      H   15    0.24868      0.00000     0.74897    0.00235     0.75132
      H   16    0.22743      0.00000     0.77148    0.00109     0.77257
      H   17    0.23136      0.00000     0.76776    0.00088     0.76864
      H   18    0.23140      0.00000     0.76776    0.00084     0.76860
      H   19    0.23136      0.00000     0.76776    0.00088     0.76864
      H   20    0.22744      0.00000     0.77147    0.00109     0.77256
 =======================================================================
   * Total *   -0.00000     21.99131    55.78979    0.21890    78.00000

 Normal termination of Gaussian 09 at Mon Oct  4 08:32:21 2021.
