 Gaussian 09, Revision A.02,

 -----------------------------------
 #p opt b3lyp/6-31G* scf=(xqc,tight)
 -----------------------------------

 ---------------------------
 COc1ccc2c(c1)cc[nH]2_conf_0
 ---------------------------
 Symbolic Z-matrix:
 Charge =  0 Multiplicity = 1

 SCF Done:  E(RB3LYP) =  -478.334531364     A.U. after   14 cycles
 SCF Done:  E(RB3LYP) =  -478.336970219     A.U. after   12 cycles
 SCF Done:  E(RB3LYP) =  -478.337204338     A.U. after   11 cycles
 SCF Done:  E(RB3LYP) =  -478.337300681     A.U. after   11 cycles
 SCF Done:  E(RB3LYP) =  -478.337355451     A.U. after   11 cycles
 SCF Done:  E(RB3LYP) =  -478.337377352     A.U. after   10 cycles
 SCF Done:  E(RB3LYP) =  -478.337380236     A.U. after    8 cycles
 SCF Done:  E(RB3LYP) =  -478.337380529     A.U. after    7 cycles
 Optimization completed.
    -- Stationary point found.
 Normal termination of Gaussian 09 at Thu Sep 30 11:02:20 2021.

 ----------------------------------------------------------------------
 #p freq b3lyp/6-31G* volume NMR pop=NPA density=current Geom=AllCheck
 Guess=Read
 ----------------------------------------------------------------------

 COc1ccc2c(c1)cc[nH]2_conf_0
 ---------------------------
 Redundant internal coordinates taken from checkpoint file:
 C9H9NO_14a5_conf_0.chk
 Charge =  0 Multiplicity = 1

 SCF Done:  E(RB3LYP) =  -478.337380529     A.U. after    1 cycles

  1  C    Isotropic =   137.5517   Anisotropy =    64.7041

  2  O    Isotropic =   245.4586   Anisotropy =    64.3368

  3  C    Isotropic =    43.6891   Anisotropy =   117.3377

  4  C    Isotropic =    81.7395   Anisotropy =   128.5900

  5  C    Isotropic =    85.4509   Anisotropy =   135.8012

  6  C    Isotropic =    68.1690   Anisotropy =   128.1192

  7  C    Isotropic =    67.8438   Anisotropy =   156.0773

  8  C    Isotropic =    95.3528   Anisotropy =   127.5367

  9  C    Isotropic =    92.6644   Anisotropy =   104.7827

 10  C    Isotropic =    74.5472   Anisotropy =   106.7480

 11  N    Isotropic =   134.3497   Anisotropy =    67.9513

 12  H    Isotropic =    28.3093   Anisotropy =     8.2543

 13  H    Isotropic =    28.6106   Anisotropy =     8.1000

 14  H    Isotropic =    28.6107   Anisotropy =     8.0997

 15  H    Isotropic =    25.5953   Anisotropy =     6.0053

 16  H    Isotropic =    25.3429   Anisotropy =     5.3779

 17  H    Isotropic =    25.7180   Anisotropy =     8.3821

 18  H    Isotropic =    26.0400   Anisotropy =     3.3190

 19  H    Isotropic =    25.5044   Anisotropy =     3.6994

 20  H    Isotropic =    25.6645   Anisotropy =    10.3256

  Exact polarizability: 150.572  -4.756 108.296   0.001   0.001  41.502
 Approx polarizability: 235.727 -11.614 186.943   0.001   0.001  62.815

                     1                      2                      3
                     A                      A                      A
 Frequencies --    84.1820               154.9255               214.2731
 Red. masses --     3.1768                 3.9673                 3.3174
 Frc consts  --     0.0133                 0.0561                 0.0897
 IR Inten    --     6.5739                 0.1108                 3.1969

                     4                      5                      6
                     A                      A                      A
 Frequencies --   224.0043               255.1791               344.4279
 Red. masses --     4.5595                 1.1575                 1.3699
 Frc consts  --     0.1348                 0.0444                 0.0957
 IR Inten    --    12.6243                 0.3109                71.4573

                     7                      8                      9
                     A                      A                      A
 Frequencies --   370.0922               376.6654               435.9881
 Red. masses --     4.3040                 3.8660                 3.0086
 Frc consts  --     0.3473                 0.3232                 0.3369
 IR Inten    --     4.0265                12.1178                 1.8533

                    10                     11                     12
                     A                      A                      A
 Frequencies --   461.1658               526.6963               608.1123
 Red. masses --     5.3116                 4.2910                 2.5443
 Frc consts  --     0.6656                 0.7013                 0.5544
 IR Inten    --     2.3756                 2.5864                 4.3617

                    13                     14                     15
                     A                      A                      A
 Frequencies --   610.9598               637.8813               723.8372
 Red. masses --     5.8769                 3.4648                 1.4575
 Frc consts  --     1.2925                 0.8306                 0.4499
 IR Inten    --     0.8732                 0.0112                41.8810

                    16                     17                     18
                     A                      A                      A
 Frequencies --   757.0728               767.3531               811.2706
 Red. masses --     5.9718                 2.3458                 5.2661
 Frc consts  --     2.0167                 0.8138                 2.0421
 IR Inten    --     4.1170                15.5980                18.1172

                    19                     20                     21
                     A                      A                      A
 Frequencies --   812.7705               838.9601               856.4496
 Red. masses --     1.6952                 1.2633                 1.5756
 Frc consts  --     0.6598                 0.5239                 0.6809
 IR Inten    --    20.3482                 1.3241                28.4447

                    22                     23                     24
                     A                      A                      A
 Frequencies --   911.5600               925.6060               962.2271
 Red. masses --     4.3814                 1.2507                 3.2181
 Frc consts  --     2.1451                 0.6313                 1.7555
 IR Inten    --    10.0747                 0.2176                 7.3909

                    25                     26                     27
                     A                      A                      A
 Frequencies --  1075.4373              1101.6790              1117.4156
 Red. masses --     3.7541                 1.4870                 1.5903
 Frc consts  --     2.5581                 1.0633                 1.1699
 IR Inten    --    35.0061                 9.3620                 2.8768

                    28                     29                     30
                     A                      A                      A
 Frequencies --  1155.4373              1187.0462              1192.7909
 Red. masses --     1.2724                 1.2725                 1.9248
 Frc consts  --     1.0008                 1.0564                 1.6135
 IR Inten    --    16.2867                 0.7926                87.1061

                    31                     32                     33
                     A                      A                      A
 Frequencies --  1227.7317              1262.2284              1277.7316
 Red. masses --     1.5608                 2.5175                 1.5705
 Frc consts  --     1.3862                 2.3632                 1.5107
 IR Inten    --     9.5712               145.2459                 9.9262

                    34                     35                     36
                     A                      A                      A
 Frequencies --  1329.1893              1369.0112              1388.7147
 Red. masses --     3.5966                 2.1352                 5.5041
 Frc consts  --     3.7438                 2.3578                 6.2540
 IR Inten    --    66.7855                12.3310                14.4266

                    37                     38                     39
                     A                      A                      A
 Frequencies --  1465.4460              1494.8322              1506.9051
 Red. masses --     2.8246                 1.4250                 2.7229
 Frc consts  --     3.5739                 1.8760                 3.6429
 IR Inten    --     6.9115                66.8411                38.9147

                    40                     41                     42
                     A                      A                      A
 Frequencies --  1518.4499              1531.1692              1537.7494
 Red. masses --     1.0482                 2.8111                 1.0922
 Frc consts  --     1.4240                 3.8831                 1.5217
 IR Inten    --     4.7034                53.3468                27.3741

                    43                     44                     45
                     A                      A                      A
 Frequencies --  1569.3195              1638.7132              1681.2510
 Red. masses --     3.8164                 5.5623                 6.4016
 Frc consts  --     5.5377                 8.8005                10.6612
 IR Inten    --    10.7075                28.4667                39.2615

                    46                     47                     48
                     A                      A                      A
 Frequencies --  3016.0044              3070.4335              3149.1023
 Red. masses --     1.0352                 1.1062                 1.0989
 Frc consts  --     5.5480                 6.1445                 6.4207
 IR Inten    --    55.3901                50.9901                33.1532

                    49                     50                     51
                     A                      A                      A
 Frequencies --  3188.5339              3217.9593              3222.8341
 Red. masses --     1.0890                 1.0931                 1.0895
 Frc consts  --     6.5233                 6.6692                 6.6674
 IR Inten    --    13.9848                 9.0458                10.6843

                    52                     53                     54
                     A                      A                      A
 Frequencies --  3256.3601              3276.6623              3671.8645
 Red. masses --     1.0897                 1.1030                 1.0801
 Frc consts  --     6.8081                 6.9771                 8.5800
 IR Inten    --     2.8049                 6.4238                60.0688

 - Thermochemistry -
 -------------------
 Temperature   298.150 Kelvin.  Pressure   1.00000 Atm.
 Atom     1 has atomic number  6 and mass  12.00000

 Molecular mass:   147.06841 amu.
 Principal axes and moments of inertia in atomic units:
                           1         2         3
     Eigenvalues --   633.177612396.303893017.97841
           X            0.99983   0.01835   0.00000
           Y           -0.01835   0.99983   0.00000
           Z           -0.00000  -0.00000   1.00000
 This molecule is an asymmetric top.
 Rotational symmetry number  1.
 Warning -- assumption of classical behavior for rotation
           may cause significant error
 Rotational temperatures (Kelvin)      0.13679     0.03614     0.02870
 Rotational constants (GHZ):           2.85029     0.75314     0.59800
 Zero-point vibrational energy     426885.4 (Joules/Mol)
                                  102.02805 (Kcal/Mol)
 Warning -- explicit consideration of  13 degrees of freedom as
           vibrations may cause significant error
 Vibrational temperatures:    121.12   222.90   308.29   322.29   367.15
          (Kelvin)            495.55   532.48   541.94   627.29   663.51
                              757.80   874.94   879.03   917.77  1041.44
                             1089.26  1104.05  1167.24  1169.39  1207.07
                             1232.24  1311.53  1331.74  1384.43  1547.31
                             1585.07  1607.71  1662.41  1707.89  1716.16
                             1766.43  1816.06  1838.37  1912.40  1969.70
                             1998.05  2108.45  2150.73  2168.10  2184.71
                             2203.01  2212.48  2257.90  2357.74  2418.94
                             4339.35  4417.66  4530.85  4587.58  4629.92
                             4636.93  4685.17  4714.38  5282.99

 Zero-point correction=                           0.162592 (Hartree/Particle)
 Thermal correction to Energy=                    0.171535
 Thermal correction to Enthalpy=                  0.172479
 Thermal correction to Gibbs Free Energy=         0.128756
 Sum of electronic and zero-point Energies=           -478.174788
 Sum of electronic and thermal Energies=              -478.165846
 Sum of electronic and thermal Enthalpies=            -478.164902
 Sum of electronic and thermal Free Energies=         -478.208625

                     E (Thermal)             CV                S
                      KCal/Mol        Cal/Mol-Kelvin    Cal/Mol-Kelvin
 Total                  107.640             35.692             92.023
 Electronic               0.000              0.000              0.000
 Translational            0.889              2.981             40.868
 Rotational               0.889              2.981             29.905
 Vibrational            105.862             29.731             21.250
 Vibration     1          0.601              1.960              3.791
 Vibration     2          0.620              1.897              2.611
 Vibration     3          0.644              1.819              2.007
 Vibration     4          0.649              1.805              1.926
 Vibration     5          0.666              1.754              1.695
 Vibration     6          0.723              1.587              1.192
 Vibration     7          0.742              1.534              1.079
 Vibration     8          0.747              1.520              1.053
 Vibration     9          0.796              1.392              0.839
 Vibration    10          0.819              1.336              0.763
 Vibration    11          0.882              1.191              0.595
 Vibration    12          0.967              1.015              0.436
 Vibration    13          0.970              1.009              0.431

 Optimization completed.
    -- Stationary point found.
 Normal termination of Gaussian 09 at Thu Sep 30 11:36:28 2021.
 Gaussian 09:  AM64L-G09RevA.02 11-Jun-2009

 ----------------------------------------------------------------------
 #p TD(NStates=10, Root=1) b3lyp/6-31G* volume pop=NPA density=current
 Geom=AllCheck Guess=Read
 ----------------------------------------------------------------------

 COc1ccc2c(c1)cc[nH]2_conf_0
 ---------------------------
 Redundant internal coordinates taken from checkpoint file:
 C9H9NO_14a5_conf_0.chk
 Charge =  0 Multiplicity = 1

                         Standard orientation:
 ---------------------------------------------------------------------
 Center     Atomic      Atomic             Coordinates (Angstroms)
 Number     Number       Type             X           Y           Z
 ---------------------------------------------------------------------
      1          6           0       -3.445856   -0.977713    0.000098
      2          8           0       -2.804550    0.283072   -0.000069
      3          6           0       -1.431618    0.304188   -0.000019
      4          6           0       -0.867802    1.603579   -0.000006
      5          6           0        0.504279    1.790217   -0.000022
      6          6           0        1.319939    0.652282    0.000019
      7          6           0        0.775260   -0.658430   -0.000031
      8          6           0       -0.624988   -0.828327   -0.000050
      9          6           0        1.884781   -1.569561   -0.000027
     10          6           0        3.029631   -0.813503    0.000015
     11          7           0        2.697435    0.526246   -0.000046
     12          1           0       -4.518411   -0.771820    0.000053
     13          1           0       -3.190238   -1.563729    0.894100
     14          1           0       -3.190251   -1.564020   -0.893687
     15          1           0       -1.546736    2.450190   -0.000047
     16          1           0        0.926192    2.792001   -0.000062
     17          1           0       -1.047470   -1.826730   -0.000063
     18          1           0        1.838498   -2.650047   -0.000066
     19          1           0        4.066406   -1.120528   -0.000006
     20          1           0        3.354612    1.289997    0.000793
 ---------------------------------------------------------------------

 SCF Done:  E(RB3LYP) =  -478.337380529     A.U. after    1 cycles

 Excitation energies and oscillator strengths:

 Excited State   1:      Singlet-A      4.6030 eV  269.36 nm  f=0.0511  <S**2>=0.000
      38 -> 41         0.20926
      39 -> 40         0.66520
 This state for optimization and/or second-order correction.
 Total Energy, E(TD-HF/TD-KS) =  -478.168224924
 Copying the excited state density for this state as the 1-particle RhoCI density.

 Excited State   2:      Singlet-A      4.9717 eV  249.38 nm  f=0.1063  <S**2>=0.000
      38 -> 40         0.64343
      39 -> 41        -0.23696

 Excited State   3:      Singlet-A      6.2164 eV  199.45 nm  f=0.0771  <S**2>=0.000
      36 -> 40        -0.10571
      37 -> 40        -0.24841
      38 -> 41         0.54264
      38 -> 42        -0.13183
      39 -> 40        -0.11701
      39 -> 41        -0.30838

 Excited State   4:      Singlet-A      6.3265 eV  195.98 nm  f=0.6441  <S**2>=0.000
      38 -> 40         0.23105
      38 -> 41         0.30672
      39 -> 40        -0.12631
      39 -> 41         0.54304
      39 -> 42        -0.11907

 Excited State   5:      Singlet-A      6.5488 eV  189.32 nm  f=0.0001  <S**2>=0.000
      38 -> 43         0.19732
      39 -> 43         0.67367

 Excited State   6:      Singlet-A      6.5875 eV  188.21 nm  f=0.0359  <S**2>=0.000
      36 -> 40        -0.13517
      37 -> 40         0.42454
      38 -> 41         0.14739
      38 -> 42         0.11057
      39 -> 42         0.49810

 Excited State   7:      Singlet-A      6.6591 eV  186.19 nm  f=0.0000  <S**2>=0.000
      38 -> 43         0.67542
      39 -> 43        -0.19801

 Excited State   8:      Singlet-A      6.7280 eV  184.28 nm  f=0.3259  <S**2>=0.000
      36 -> 40         0.10914
      37 -> 40        -0.31111
      37 -> 41        -0.15231
      38 -> 40         0.15343
      38 -> 42        -0.34571
      39 -> 41         0.18289
      39 -> 42         0.42177

 Excited State   9:      Singlet-A      7.1120 eV  174.33 nm  f=0.0684  <S**2>=0.000
      36 -> 40         0.49699
      37 -> 40        -0.16417
      37 -> 41         0.13548
      37 -> 42        -0.10066
      38 -> 42         0.39998
      39 -> 42         0.14654

 Excited State  10:      Singlet-A      7.1882 eV  172.48 nm  f=0.0020  <S**2>=0.000
      39 -> 44         0.67261
      39 -> 45        -0.18876

 The electronic state is 1-A.
 Alpha  occ. eigenvalues --  -19.16297 -14.37333 -10.23058 -10.23035 -10.21341
 Alpha  occ. eigenvalues --  -10.20685 -10.18502 -10.17786 -10.17384 -10.17379
 Alpha  occ. eigenvalues --  -10.16765  -1.04820  -0.97007  -0.82906  -0.77347
 Alpha  occ. eigenvalues --   -0.73675  -0.71349  -0.68463  -0.60792  -0.58968
 Alpha  occ. eigenvalues --   -0.57118  -0.53601  -0.50420  -0.48118  -0.45607
 Alpha  occ. eigenvalues --   -0.45299  -0.43462  -0.41644  -0.41055  -0.39581
 Alpha  occ. eigenvalues --   -0.38714  -0.38421  -0.35034  -0.34274  -0.31543
 Alpha  occ. eigenvalues --   -0.28732  -0.26896  -0.19876  -0.19153
 Alpha virt. eigenvalues --   -0.00112   0.04609   0.07784   0.08123   0.10751
 Alpha virt. eigenvalues --    0.11846   0.13816   0.14315   0.16279   0.16558
 Alpha virt. eigenvalues --    0.17622   0.18117   0.19240   0.19480   0.22326

 Mulliken atomic charges:
              1
     1  C   -0.222268
     2  O   -0.458817
     3  C    0.367005
     4  C   -0.224077
     5  C   -0.189085
     6  C    0.313443
     7  C    0.107850
     8  C   -0.283819
     9  C   -0.211703
    10  C    0.011883
    11  N   -0.658100
    12  H    0.174400
    13  H    0.166342
    14  H    0.166346
    15  H    0.116000
    16  H    0.106885
    17  H    0.121594
    18  H    0.125687
    19  H    0.137723
    20  H    0.332710
 Sum of Mulliken atomic charges =  -0.00000

 Dipole moment (field-independent basis, Debye):
    X=              0.3158    Y=             -1.0171    Z=              0.0014  Tot=              1.0651
 Quadrupole moment (field-independent basis, Debye-Ang):
   XX=            -46.6762   YY=            -58.7219   ZZ=            -67.9027
   XY=              9.5273   XZ=              0.0041   YZ=              0.0019

 Summary of Natural Population Analysis:

                                       Natural Population
                Natural  -----------------------------------------------
    Atom  No    Charge         Core      Valence    Rydberg      Total
 -----------------------------------------------------------------------
      C    1   -0.32419      1.99943     4.31047    0.01430     6.32419
      O    2   -0.44359      1.99976     6.43214    0.01169     8.44359
      C    3    0.34855      1.99880     3.62997    0.02268     5.65145
      C    4   -0.35175      1.99909     4.33367    0.01900     6.35175
      C    5   -0.32079      1.99903     4.30400    0.01776     6.32079
      C    6    0.17295      1.99898     3.80839    0.01968     5.82705
      C    7   -0.09896      1.99904     4.08299    0.01693     6.09896
      C    8   -0.32473      1.99898     4.31060    0.01515     6.32473
      C    9   -0.27641      1.99904     4.26423    0.01314     6.27641
      C   10   -0.11287      1.99916     4.09214    0.02157     6.11287
      N   11   -0.51545      1.99933     5.50502    0.01110     7.51545
      H   12    0.22997      0.00000     0.76949    0.00054     0.77003
      H   13    0.21320      0.00000     0.78490    0.00190     0.78680
      H   14    0.21320      0.00000     0.78490    0.00190     0.78680
      H   15    0.23693      0.00000     0.76204    0.00103     0.76307
      H   16    0.22816      0.00000     0.77085    0.00099     0.77184
      H   17    0.22988      0.00000     0.76899    0.00112     0.77012
      H   18    0.23779      0.00000     0.76163    0.00058     0.76221
      H   19    0.22671      0.00000     0.77281    0.00049     0.77329
      H   20    0.43140      0.00000     0.56703    0.00157     0.56860
 =======================================================================
   * Total *    0.00000     21.99063    55.81627    0.19311    78.00000

 Normal termination of Gaussian 09 at Thu Sep 30 14:00:48 2021.
