 Gaussian 09, Revision A.02,

 -----------------------------------
 #p opt b3lyp/6-31G* scf=(xqc,tight)
 -----------------------------------

 -----------------------------
 COCOc1cccc(c1)C(F)(F)F_conf_0
 -----------------------------
 Symbolic Z-matrix:
 Charge =  0 Multiplicity = 1

 SCF Done:  E(RB3LYP) =  -798.330298465     A.U. after   14 cycles
 SCF Done:  E(RB3LYP) =  -798.334239438     A.U. after   12 cycles
 SCF Done:  E(RB3LYP) =  -798.334601764     A.U. after   11 cycles
 SCF Done:  E(RB3LYP) =  -798.334677747     A.U. after   11 cycles
 SCF Done:  E(RB3LYP) =  -798.334719251     A.U. after   11 cycles
 SCF Done:  E(RB3LYP) =  -798.334739330     A.U. after   11 cycles
 SCF Done:  E(RB3LYP) =  -798.334749944     A.U. after   10 cycles
 SCF Done:  E(RB3LYP) =  -798.334758387     A.U. after   10 cycles
 SCF Done:  E(RB3LYP) =  -798.334764200     A.U. after   10 cycles
 SCF Done:  E(RB3LYP) =  -798.334774830     A.U. after   11 cycles
 SCF Done:  E(RB3LYP) =  -798.334927324     A.U. after   15 cycles
 SCF Done:  E(RB3LYP) =  -798.334882878     A.U. after   14 cycles
 SCF Done:  E(RB3LYP) =  -798.334957058     A.U. after   12 cycles
 SCF Done:  E(RB3LYP) =  -798.334983320     A.U. after   15 cycles
 SCF Done:  E(RB3LYP) =  -798.334993908     A.U. after   15 cycles
 SCF Done:  E(RB3LYP) =  -798.335001538     A.U. after   11 cycles
 SCF Done:  E(RB3LYP) =  -798.335001100     A.U. after    9 cycles
 SCF Done:  E(RB3LYP) =  -798.335001216     A.U. after    7 cycles
 Optimization completed.
    -- Stationary point found.
 Normal termination of Gaussian 09 at Thu Sep 30 20:07:28 2021.

 ----------------------------------------------------------------------
 #p freq b3lyp/6-31G* volume NMR pop=NPA density=current Geom=AllCheck
 Guess=Read
 ----------------------------------------------------------------------

 COCOc1cccc(c1)C(F)(F)F_conf_0
 -----------------------------
 Redundant internal coordinates taken from checkpoint file:
 C9H9F3O2_aac7_conf_0.chk
 Charge =  0 Multiplicity = 1

 SCF Done:  E(RB3LYP) =  -798.335001216     A.U. after    1 cycles

  1  C    Isotropic =   136.1809   Anisotropy =    73.7139

  2  O    Isotropic =   271.5877   Anisotropy =    61.5938

  3  C    Isotropic =    96.6120   Anisotropy =    36.4863

  4  O    Isotropic =   197.1592   Anisotropy =    93.9409

  5  C    Isotropic =    38.9813   Anisotropy =   126.6841

  6  C    Isotropic =    78.7754   Anisotropy =   150.4219

  7  C    Isotropic =    66.4542   Anisotropy =   166.4915

  8  C    Isotropic =    76.7701   Anisotropy =   159.3042

  9  C    Isotropic =    62.1961   Anisotropy =   146.6178

 10  C    Isotropic =    79.3789   Anisotropy =   139.0391

 11  C    Isotropic =    63.0897   Anisotropy =    12.0176

 12  F    Isotropic =   272.9053   Anisotropy =   123.1232

 13  F    Isotropic =   249.1257   Anisotropy =   127.8841

 14  F    Isotropic =   274.8248   Anisotropy =   121.4979

 15  H    Isotropic =    28.6796   Anisotropy =     8.3754

 16  H    Isotropic =    29.1735   Anisotropy =     8.4537

 17  H    Isotropic =    28.4340   Anisotropy =     7.4948

 18  H    Isotropic =    27.1873   Anisotropy =     6.4684

 19  H    Isotropic =    26.9074   Anisotropy =     4.3999

 20  H    Isotropic =    24.9410   Anisotropy =     8.6654

 21  H    Isotropic =    24.9589   Anisotropy =     4.8396

 22  H    Isotropic =    25.1245   Anisotropy =     7.2522

 23  H    Isotropic =    25.2482   Anisotropy =     9.4171

  Exact polarizability: 133.807  -5.865 102.404  -3.663   3.402  60.034
 Approx polarizability: 183.014  -5.881 173.928  -9.607   5.829  86.822

                     1                      2                      3
                     A                      A                      A
 Frequencies --    21.9115                33.9330                70.0382
 Red. masses --     9.6659                 5.2724                 3.5495
 Frc consts  --     0.0027                 0.0036                 0.0103
 IR Inten    --     0.0286                 0.0004                 0.9492

                     4                      5                      6
                     A                      A                      A
 Frequencies --   116.6503               130.5625               153.9621
 Red. masses --     2.7854                 4.2028                 2.1473
 Frc consts  --     0.0223                 0.0422                 0.0300
 IR Inten    --     3.7972                 0.4496                 0.1406

                     7                      8                      9
                     A                      A                      A
 Frequencies --   178.2405               201.9694               280.4626
 Red. masses --     2.6975                 3.5637                 5.5020
 Frc consts  --     0.0505                 0.0856                 0.2550
 IR Inten    --     4.6617                 2.5579                 6.1626

                    10                     11                     12
                     A                      A                      A
 Frequencies --   291.5720               327.0605               358.2595
 Red. masses --     6.3539                 6.6450                 7.4326
 Frc consts  --     0.3183                 0.4188                 0.5621
 IR Inten    --     1.8779                 2.1091                 3.7834

                    13                     14                     15
                     A                      A                      A
 Frequencies --   404.4866               454.3847               467.4134
 Red. masses --     3.8067                 3.2903                 4.0078
 Frc consts  --     0.3669                 0.4003                 0.5159
 IR Inten    --     6.0949                 0.6615                 1.3119

                    16                     17                     18
                     A                      A                      A
 Frequencies --   520.4436               549.9331               575.7581
 Red. masses --     7.4915                 5.0843                11.7812
 Frc consts  --     1.1955                 0.9059                 2.3010
 IR Inten    --     3.1260                 3.3530                 0.2737

                    19                     20                     21
                     A                      A                      A
 Frequencies --   633.6539               658.7641               672.7644
 Red. masses --     6.2834                 5.6722                 7.7557
 Frc consts  --     1.4865                 1.4503                 2.0682
 IR Inten    --    13.0635                 2.9303                 6.0577

                    22                     23                     24
                     A                      A                      A
 Frequencies --   712.0314               745.5453               808.1002
 Red. masses --     2.5783                 9.9300                 1.4463
 Frc consts  --     0.7702                 3.2520                 0.5564
 IR Inten    --    11.3080                13.3483                37.8536

                    25                     26                     27
                     A                      A                      A
 Frequencies --   878.3748               904.8403               914.3448
 Red. masses --     5.9812                 1.4542                 1.3718
 Frc consts  --     2.7189                 0.7015                 0.6757
 IR Inten    --     5.8502                23.3960                 0.5384

                    28                     29                     30
                     A                      A                      A
 Frequencies --   951.4465               978.7123              1015.6151
 Red. masses --     4.3378                 1.2717                 6.0135
 Frc consts  --     2.3136                 0.7177                 3.6546
 IR Inten    --    22.7878                 0.4501                 3.0831

                    31                     32                     33
                     A                      A                      A
 Frequencies --  1043.2828              1094.3926              1113.7274
 Red. masses --     8.8045                 2.1755                 2.2265
 Frc consts  --     5.6462                 1.5351                 1.6271
 IR Inten    --   487.6323                32.1642                63.2589

                    34                     35                     36
                     A                      A                      A
 Frequencies --  1128.6294              1183.7382              1185.5134
 Red. masses --     1.6993                 2.4375                 3.9006
 Frc consts  --     1.2753                 2.0124                 3.2300
 IR Inten    --    22.0147                60.4293               280.6631

                    37                     38                     39
                     A                      A                      A
 Frequencies --  1191.7647              1207.4724              1213.1781
 Red. masses --     1.8026                 1.2054                 5.7128
 Frc consts  --     1.5084                 1.0354                 4.9539
 IR Inten    --   140.8437                 5.8702               160.3701

                    40                     41                     42
                     A                      A                      A
 Frequencies --  1230.2703              1260.3786              1326.2251
 Red. masses --     1.7183                 2.6823                 1.6043
 Frc consts  --     1.5323                 2.5105                 1.6626
 IR Inten    --    18.6939                59.7953                97.4233

                    43                     44                     45
                     A                      A                      A
 Frequencies --  1347.7605              1351.2529              1372.8253
 Red. masses --     4.5983                 1.2261                 3.6013
 Frc consts  --     4.9212                 1.3190                 3.9989
 IR Inten    --   343.4522                17.2169                40.2149

                    46                     47                     48
                     A                      A                      A
 Frequencies --  1454.3249              1498.2886              1500.2436
 Red. masses --     1.1980                 2.2228                 1.3820
 Frc consts  --     1.4929                 2.9399                 1.8327
 IR Inten    --    21.5675                75.4766                 8.5973

                    49                     50                     51
                     A                      A                      A
 Frequencies --  1515.4074              1526.1521              1537.8746
 Red. masses --     1.0571                 1.1355                 1.2996
 Frc consts  --     1.4303                 1.5582                 1.8109
 IR Inten    --     2.2767                 5.4195                12.7937

                    52                     53                     54
                     A                      A                      A
 Frequencies --  1542.4599              1645.7176              1673.0980
 Red. masses --     1.6819                 5.9679                 6.0580
 Frc consts  --     2.3576                 9.5232                 9.9914
 IR Inten    --    32.0744                45.1898                22.4324

                    55                     56                     57
                     A                      A                      A
 Frequencies --  3021.1465              3046.1329              3095.6397
 Red. masses --     1.0418                 1.0574                 1.0965
 Frc consts  --     5.6024                 5.7806                 6.1907
 IR Inten    --    50.0711                78.8200                35.5432

                    58                     59                     60
                     A                      A                      A
 Frequencies --  3111.7261              3157.8663              3199.0078
 Red. masses --     1.1104                 1.1018                 1.0887
 Frc consts  --     6.3348                 6.4738                 6.5643
 IR Inten    --    26.9479                23.5958                10.4018

                    61                     62                     63
                     A                      A                      A
 Frequencies --  3228.9586              3235.0871              3240.6554
 Red. masses --     1.0927                 1.0912                 1.0929
 Frc consts  --     6.7121                 6.7285                 6.7622
 IR Inten    --     4.8620                 0.4035                 0.7145

 - Thermochemistry -
 -------------------
 Temperature   298.150 Kelvin.  Pressure   1.00000 Atm.
 Atom     1 has atomic number  6 and mass  12.00000

 Molecular mass:   206.05546 amu.
 Principal axes and moments of inertia in atomic units:
                           1         2         3
     Eigenvalues --  1093.851155853.778536334.79636
           X            0.99988  -0.01405   0.00610
           Y            0.01407   0.99990  -0.00316
           Z           -0.00606   0.00325   0.99998
 This molecule is an asymmetric top.
 Rotational symmetry number  1.
 Warning -- assumption of classical behavior for rotation
           may cause significant error
 Rotational temperatures (Kelvin)      0.07918     0.01480     0.01367
 Rotational constants (GHZ):           1.64990     0.30830     0.28489
 Zero-point vibrational energy     451539.0 (Joules/Mol)
                                  107.92042 (Kcal/Mol)
 Warning -- explicit consideration of  18 degrees of freedom as
           vibrations may cause significant error
 Vibrational temperatures:     31.53    48.82   100.77   167.83   187.85
          (Kelvin)            221.52   256.45   290.59   403.52   419.51
                              470.57   515.45   581.97   653.76   672.50
                              748.80   791.23   828.39   911.69   947.81
                              967.96  1024.45  1072.67  1162.67  1263.78
                             1301.86  1315.54  1368.92  1408.15  1461.24
                             1501.05  1574.58  1602.40  1623.84  1703.13
                             1705.69  1714.68  1737.28  1745.49  1770.08
                             1813.40  1908.14  1939.12  1944.15  1975.19
                             2092.45  2155.70  2158.51  2180.33  2195.79
                             2212.66  2219.25  2367.82  2407.21  4346.75
                             4382.70  4453.93  4477.07  4543.46  4602.65
                             4645.75  4654.56  4662.57

 Zero-point correction=                           0.171982 (Hartree/Particle)
 Thermal correction to Energy=                    0.184795
 Thermal correction to Enthalpy=                  0.185739
 Thermal correction to Gibbs Free Energy=         0.130568
 Sum of electronic and zero-point Energies=           -798.163019
 Sum of electronic and thermal Energies=              -798.150206
 Sum of electronic and thermal Enthalpies=            -798.149262
 Sum of electronic and thermal Free Energies=         -798.204433

                     E (Thermal)             CV                S
                      KCal/Mol        Cal/Mol-Kelvin    Cal/Mol-Kelvin
 Total                  115.961             46.773            116.118
 Electronic               0.000              0.000              0.000
 Translational            0.889              2.981             41.873
 Rotational               0.889              2.981             32.073
 Vibrational            114.183             40.812             42.172
 Vibration     1          0.593              1.985              6.453
 Vibration     2          0.594              1.983              5.585
 Vibration     3          0.598              1.968              4.152
 Vibration     4          0.608              1.936              3.155
 Vibration     5          0.612              1.923              2.938
 Vibration     6          0.619              1.898              2.623
 Vibration     7          0.629              1.869              2.347
 Vibration     8          0.639              1.837              2.115
 Vibration     9          0.680              1.710              1.531
 Vibration    10          0.687              1.689              1.465
 Vibration    11          0.711              1.621              1.275
 Vibration    12          0.733              1.558              1.130
 Vibration    13          0.770              1.460              0.946
 Vibration    14          0.813              1.351              0.783
 Vibration    15          0.825              1.322              0.745
 Vibration    16          0.875              1.205              0.609
 Vibration    17          0.905              1.140              0.544
 Vibration    18          0.932              1.084              0.493

 Normal termination of Gaussian 09 at Thu Sep 30 20:57:47 2021.
 Gaussian 09:  AM64L-G09RevA.02 11-Jun-2009

 ----------------------------------------------------------------------
 #p TD(NStates=10, Root=1) b3lyp/6-31G* volume pop=NPA density=current
 Geom=AllCheck Guess=Read
 ----------------------------------------------------------------------

 COCOc1cccc(c1)C(F)(F)F_conf_0
 -----------------------------
 Redundant internal coordinates taken from checkpoint file:
 C9H9F3O2_aac7_conf_0.chk
 Charge =  0 Multiplicity = 1

                         Standard orientation:
 ---------------------------------------------------------------------
 Center     Atomic      Atomic             Coordinates (Angstroms)
 Number     Number       Type             X           Y           Z
 ---------------------------------------------------------------------
      1          6           0        4.405178   -0.552760    1.114812
      2          8           0        3.956074    0.229810    0.012545
      3          6           0        3.194704   -0.480758   -0.912830
      4          8           0        1.949938   -0.948441   -0.412412
      5          6           0        0.925041   -0.049286   -0.246460
      6          6           0        1.093196    1.338755   -0.174407
      7          6           0       -0.029261    2.154418   -0.010456
      8          6           0       -1.305855    1.609234    0.096419
      9          6           0       -1.457262    0.219694    0.038877
     10          6           0       -0.351787   -0.609300   -0.133845
     11          6           0       -2.834109   -0.386129    0.094455
     12          9           0       -3.674575    0.344161    0.861511
     13          9           0       -3.396433   -0.463193   -1.135428
     14          9           0       -2.816454   -1.641556    0.595109
     15          1           0        5.047304    0.095066    1.714852
     16          1           0        4.986291   -1.420803    0.769626
     17          1           0        3.566669   -0.905600    1.726120
     18          1           0        3.709118   -1.395272   -1.235510
     19          1           0        3.033567    0.194667   -1.759594
     20          1           0        2.085271    1.772395   -0.210287
     21          1           0        0.103722    3.230976    0.049225
     22          1           0       -2.171971    2.246551    0.236578
     23          1           0       -0.459975   -1.686862   -0.182199
 ---------------------------------------------------------------------

 SCF Done:  E(RB3LYP) =  -798.335001216     A.U. after    1 cycles

 Excitation energies and oscillator strengths:

 Excited State   1:      Singlet-A      5.0873 eV  243.71 nm  f=0.0292  <S**2>=0.000
      52 -> 55         0.30973
      53 -> 54         0.62889
 This state for optimization and/or second-order correction.
 Total Energy, E(TD-HF/TD-KS) =  -798.148045157
 Copying the excited state density for this state as the 1-particle RhoCI density.

 Excited State   2:      Singlet-A      5.9014 eV  210.09 nm  f=0.0500  <S**2>=0.000
      52 -> 54        -0.38583
      53 -> 54        -0.10032
      53 -> 55         0.57944

 Excited State   3:      Singlet-A      6.4444 eV  192.39 nm  f=0.0021  <S**2>=0.000
      51 -> 54         0.70015

 Excited State   4:      Singlet-A      6.7767 eV  182.96 nm  f=0.5692  <S**2>=0.000
      51 -> 55         0.24000
      52 -> 54         0.49026
      52 -> 55        -0.20248
      53 -> 55         0.33748

 Excited State   5:      Singlet-A      6.8976 eV  179.75 nm  f=0.1708  <S**2>=0.000
      51 -> 55         0.61602
      52 -> 54        -0.25058
      52 -> 55        -0.13582
      53 -> 55        -0.16447

 Excited State   6:      Singlet-A      6.9323 eV  178.85 nm  f=0.2405  <S**2>=0.000
      49 -> 54        -0.16721
      50 -> 54        -0.17126
      51 -> 55         0.22741
      52 -> 54         0.17164
      52 -> 55         0.52720
      53 -> 54        -0.25472

 Excited State   7:      Singlet-A      7.3167 eV  169.45 nm  f=0.0404  <S**2>=0.000
      48 -> 54        -0.17620
      49 -> 54        -0.13353
      50 -> 54         0.64082
      52 -> 55         0.14220

 Excited State   8:      Singlet-A      7.7105 eV  160.80 nm  f=0.0107  <S**2>=0.000
      48 -> 55        -0.16640
      50 -> 55         0.66196

 Excited State   9:      Singlet-A      7.8339 eV  158.27 nm  f=0.0066  <S**2>=0.000
      48 -> 54         0.65700
      50 -> 54         0.17200
      53 -> 56         0.13041

 Excited State  10:      Singlet-A      7.8851 eV  157.24 nm  f=0.0008  <S**2>=0.000
      48 -> 54        -0.13778
      53 -> 56         0.60664
      53 -> 57         0.31795

 The electronic state is 1-A.
 Alpha  occ. eigenvalues --  -24.71948 -24.71903 -24.71313 -19.18730 -19.17188
 Alpha  occ. eigenvalues --  -10.42720 -10.29759 -10.26016 -10.23933 -10.21476
 Alpha  occ. eigenvalues --  -10.20373 -10.20135 -10.19998 -10.19949  -1.29462
 Alpha  occ. eigenvalues --   -1.20945  -1.20434  -1.09310  -1.03611  -0.86911
 Alpha  occ. eigenvalues --   -0.78226  -0.76794  -0.72901  -0.69373  -0.66496
 Alpha  occ. eigenvalues --   -0.62621  -0.60807  -0.57284  -0.57131  -0.56647
 Alpha  occ. eigenvalues --   -0.52286  -0.51167  -0.50605  -0.49739  -0.46762
 Alpha  occ. eigenvalues --   -0.45189  -0.44844  -0.44419  -0.43679  -0.42712
 Alpha  occ. eigenvalues --   -0.41434  -0.40708  -0.40204  -0.39522  -0.39106
 Alpha  occ. eigenvalues --   -0.38391  -0.37109  -0.35253  -0.34021  -0.32211
 Alpha  occ. eigenvalues --   -0.28670  -0.26552  -0.23709
 Alpha virt. eigenvalues --   -0.02300  -0.00468   0.08888   0.09756   0.11885
 Alpha virt. eigenvalues --    0.12891   0.13571   0.13795   0.14696   0.15013
 Alpha virt. eigenvalues --    0.15189   0.16584   0.16806   0.19348   0.20236

 Mulliken atomic charges:
              1
     1  C   -0.219934
     2  O   -0.439686
     3  C    0.154444
     4  O   -0.465933
     5  C    0.342241
     6  C   -0.189621
     7  C   -0.165558
     8  C   -0.133286
     9  C   -0.035326
    10  C   -0.219677
    11  C    0.767186
    12  F   -0.277548
    13  F   -0.267253
    14  F   -0.275413
    15  H    0.173508
    16  H    0.142660
    17  H    0.166389
    18  H    0.156472
    19  H    0.174217
    20  H    0.159882
    21  H    0.137658
    22  H    0.160042
    23  H    0.154535
 Sum of Mulliken atomic charges =  -0.00000

 Dipole moment (field-independent basis, Debye):
    X=              4.7542    Y=              0.1990    Z=             -0.1314  Tot=              4.7602
 Quadrupole moment (field-independent basis, Debye-Ang):
   XX=            -75.7068   YY=            -75.2340   ZZ=            -77.6474
   XY=             -7.5117   XZ=              0.4744   YZ=              0.3452

 Summary of Natural Population Analysis:

                                       Natural Population
                Natural  -----------------------------------------------
    Atom  No    Charge         Core      Valence    Rydberg      Total
 -----------------------------------------------------------------------
      C    1   -0.32215      1.99944     4.30809    0.01461     6.32215
      O    2   -0.57109      1.99980     6.55928    0.01200     8.57109
      C    3    0.19405      1.99941     3.77686    0.02967     5.80595
      O    4   -0.45948      1.99975     6.44807    0.01166     8.45948
      C    5    0.33510      1.99879     3.64248    0.02362     5.66490
      C    6   -0.34124      1.99905     4.32443    0.01776     6.34124
      C    7   -0.25346      1.99915     4.23568    0.01862     6.25346
      C    8   -0.13988      1.99907     4.12445    0.01636     6.13988
      C    9   -0.21227      1.99889     4.19519    0.01819     6.21227
      C   10   -0.26851      1.99901     4.24917    0.02034     6.26851
      C   11    1.10451      1.99907     2.82549    0.07093     4.89549
      F   12   -0.36958      1.99993     7.36355    0.00610     9.36958
      F   13   -0.37087      1.99993     7.36464    0.00629     9.37087
      F   14   -0.36920      1.99993     7.36312    0.00616     9.36920
      H   15    0.22807      0.00000     0.77138    0.00055     0.77193
      H   16    0.19613      0.00000     0.80220    0.00167     0.80387
      H   17    0.21030      0.00000     0.78801    0.00169     0.78970
      H   18    0.20535      0.00000     0.79268    0.00197     0.79465
      H   19    0.22075      0.00000     0.77697    0.00228     0.77925
      H   20    0.24795      0.00000     0.75024    0.00182     0.75205
      H   21    0.23729      0.00000     0.76191    0.00080     0.76271
      H   22    0.24598      0.00000     0.75257    0.00145     0.75402
      H   23    0.25224      0.00000     0.74589    0.00187     0.74776
 =======================================================================
   * Total *   -0.00000     27.99123    77.72235    0.28642   106.00000

 Normal termination of Gaussian 09 at Fri Oct  1 00:26:58 2021.
