 Gaussian 09, Revision A.02,

 -----------------------------------
 #p opt b3lyp/6-31G* scf=(xqc,tight)
 -----------------------------------

 --------------
 C[Mg]Br_conf_0
 --------------
 Symbolic Z-matrix:
 Charge =  0 Multiplicity = 1

 SCF Done:  E(RB3LYP) =  -2811.74925130     A.U. after   12 cycles
 SCF Done:  E(RB3LYP) =  -2811.76156663     A.U. after   10 cycles
 SCF Done:  E(RB3LYP) =  -2811.77361150     A.U. after   12 cycles
 SCF Done:  E(RB3LYP) =  -2811.77946819     A.U. after   11 cycles
 SCF Done:  E(RB3LYP) =  -2811.78176290     A.U. after   11 cycles
 SCF Done:  E(RB3LYP) =  -2811.78279629     A.U. after   11 cycles
 SCF Done:  E(RB3LYP) =  -2811.78346448     A.U. after   11 cycles
 SCF Done:  E(RB3LYP) =  -2811.78346823     A.U. after    7 cycles
 SCF Done:  E(RB3LYP) =  -2811.78349690     A.U. after    8 cycles
 Optimization completed.
    -- Stationary point found.
 Normal termination of Gaussian 09 at Mon Oct  4 21:34:09 2021.

 ----------------------------------------------------------------------
 #p freq b3lyp/6-31G* volume NMR pop=NPA density=current Geom=AllCheck
 Guess=Read
 ----------------------------------------------------------------------

 C[Mg]Br_conf_0
 --------------
 Redundant internal coordinates taken from checkpoint file:
 CH3BrMg_6090_conf_0.chk
 Charge =  0 Multiplicity = 1

 SCF Done:  E(RB3LYP) =  -2811.78349690     A.U. after    1 cycles

  1  C    Isotropic =   206.9928   Anisotropy =     3.6641

  2  Mg   Isotropic =   497.1277   Anisotropy =   326.4525

  3  Br   Isotropic =  2885.4048   Anisotropy =   349.9204

  4  H    Isotropic =    32.8778   Anisotropy =    11.0137

  5  H    Isotropic =    32.8814   Anisotropy =    11.0028

  6  H    Isotropic =    32.8768   Anisotropy =    11.0191

  Exact polarizability:  72.090  -0.010  41.587   0.008  -0.001  41.586
 Approx polarizability:  96.107  -0.007  57.577   0.008  -0.002  57.579

                     1                      2                      3
                     A                      A                      A
 Frequencies --   124.1184               124.6011               302.6361
 Red. masses --     5.1410                 5.1458                 7.3729
 Frc consts  --     0.0467                 0.0471                 0.3979
 IR Inten    --    21.9838                22.0161                13.6918

                     4                      5                      6
                     A                      A                      A
 Frequencies --   607.6243               621.6436               621.7831
 Red. masses --     7.6752                 1.2131                 1.2132
 Frc consts  --     1.6696                 0.2762                 0.2763
 IR Inten    --    64.7558                84.0454                84.0086

                     7                      8                      9
                     A                      A                      A
 Frequencies --  1209.8590              1495.3878              1495.4865
 Red. masses --     1.1946                 1.0577                 1.0577
 Frc consts  --     1.0302                 1.3935                 1.3937
 IR Inten    --     4.6876                 0.0246                 0.0261

                    10                     11                     12
                     A                      A                      A
 Frequencies --  3035.6626              3111.5090              3113.0354
 Red. masses --     1.0326                 1.0993                 1.0994
 Frc consts  --     5.6063                 6.2708                 6.2776
 IR Inten    --    18.6233                14.0899                13.9135

 - Thermochemistry -
 -------------------
 Temperature   298.150 Kelvin.  Pressure   1.00000 Atm.
 Atom     1 has atomic number  6 and mass  12.00000

 Molecular mass:   117.92686 amu.
 Principal axes and moments of inertia in atomic units:
                           1         2         3
     Eigenvalues --    11.247541099.429111099.43116
           X            1.00000  -0.00003   0.00001
           Y            0.00003   0.99999  -0.00459
           Z           -0.00001   0.00459   0.99999
 This molecule is an asymmetric top.
 Rotational symmetry number  1.
 Rotational temperatures (Kelvin)      7.70069     0.07878     0.07878
 Rotational constants (GHZ):         160.45650     1.64153     1.64152
 Zero-point vibrational energy      94883.9 (Joules/Mol)
                                   22.67779 (Kcal/Mol)
 Warning -- explicit consideration of   4 degrees of freedom as
           vibrations may cause significant error
 Vibrational temperatures:    178.58   179.27   435.43   874.23   894.41
          (Kelvin)            894.61  1740.72  2151.53  2151.67  4367.64
                             4476.76  4478.96

 Zero-point correction=                           0.036139 (Hartree/Particle)
 Thermal correction to Energy=                    0.041246
 Thermal correction to Enthalpy=                  0.042190
 Thermal correction to Gibbs Free Energy=         0.007445
 Sum of electronic and zero-point Energies=          -2811.747358
 Sum of electronic and thermal Energies=             -2811.742251
 Sum of electronic and thermal Enthalpies=           -2811.741307
 Sum of electronic and thermal Free Energies=        -2811.776052

                     E (Thermal)             CV                S
                      KCal/Mol        Cal/Mol-Kelvin    Cal/Mol-Kelvin
 Total                   25.882             14.827             73.126
 Electronic               0.000              0.000              0.000
 Translational            0.889              2.981             40.210
 Rotational               0.889              2.981             24.123
 Vibrational             24.105              8.865              8.793
 Vibration     1          0.610              1.929              3.035
 Vibration     2          0.610              1.928              3.028
 Vibration     3          0.694              1.669              1.402
 Vibration     4          0.966              1.016              0.437

 Normal termination of Gaussian 09 at Mon Oct  4 21:36:16 2021.
 Gaussian 09:  AM64L-G09RevA.02 11-Jun-2009

 ----------------------------------------------------------------------
 #p TD(NStates=10, Root=1) b3lyp/6-31G* volume pop=NPA density=current
 Geom=AllCheck Guess=Read
 ----------------------------------------------------------------------

 C[Mg]Br_conf_0
 --------------
 Redundant internal coordinates taken from checkpoint file:
 CH3BrMg_6090_conf_0.chk
 Charge =  0 Multiplicity = 1

                         Standard orientation:
 ---------------------------------------------------------------------
 Center     Atomic      Atomic             Coordinates (Angstroms)
 Number     Number       Type             X           Y           Z
 ---------------------------------------------------------------------
      1          6           0        3.186763   -0.000108   -0.000466
      2         12           0        1.107375    0.000579    0.000289
      3         35           0       -1.233536   -0.000080   -0.000064
      4          1           0        3.588700   -0.582086   -0.838637
      5          1           0        3.585283   -0.437578    0.923102
      6          1           0        3.590712    1.016153   -0.082894
 ---------------------------------------------------------------------

 SCF Done:  E(RB3LYP) =  -2811.78349690     A.U. after    1 cycles

 Excitation energies and oscillator strengths:

 Excited State   1:      Singlet-A      5.4610 eV  227.04 nm  f=0.0338  <S**2>=0.000
      26 -> 29         0.69923
 This state for optimization and/or second-order correction.
 Total Energy, E(TD-HF/TD-KS) =  -2811.58280881
 Copying the excited state density for this state as the 1-particle RhoCI density.

 Excited State   2:      Singlet-A      5.4610 eV  227.04 nm  f=0.0339  <S**2>=0.000
      27 -> 29         0.69927

 Excited State   3:      Singlet-A      5.6568 eV  219.18 nm  f=0.2925  <S**2>=0.000
      28 -> 29         0.68763

 Excited State   4:      Singlet-A      5.9097 eV  209.80 nm  f=0.0592  <S**2>=0.000
      28 -> 30         0.69879

 Excited State   5:      Singlet-A      5.9107 eV  209.76 nm  f=0.0591  <S**2>=0.000
      28 -> 31         0.69878

 Excited State   6:      Singlet-A      6.2872 eV  197.20 nm  f=0.0000  <S**2>=0.000
      26 -> 31        -0.48512
      27 -> 30         0.51318

 Excited State   7:      Singlet-A      6.3047 eV  196.65 nm  f=0.0000  <S**2>=0.000
      26 -> 30         0.46821
      26 -> 31        -0.18000
      27 -> 30        -0.17063
      27 -> 31        -0.46722

 Excited State   8:      Singlet-A      6.3047 eV  196.65 nm  f=0.0000  <S**2>=0.000
      26 -> 30         0.17539
      26 -> 31         0.48074
      27 -> 30         0.45431
      27 -> 31        -0.17536

 Excited State   9:      Singlet-A      6.6511 eV  186.41 nm  f=0.0590  <S**2>=0.000
      25 -> 29         0.45129
      26 -> 30        -0.37157
      27 -> 31        -0.37264
      28 -> 29        -0.10617

 Excited State  10:      Singlet-A      7.4584 eV  166.24 nm  f=0.2195  <S**2>=0.000
      25 -> 29         0.50956
      26 -> 30         0.27279
      27 -> 31         0.27304
      28 -> 32         0.28017

 The electronic state is 1-A.
 Alpha  occ. eigenvalues -- -482.87507 -61.83762 -56.35469 -56.35347 -56.35347
 Alpha  occ. eigenvalues --  -46.83632 -10.15632  -8.54688  -6.49426  -6.49034
 Alpha  occ. eigenvalues --   -6.49034  -3.12543  -2.61104  -2.60981  -2.60981
 Alpha  occ. eigenvalues --   -2.60669  -2.60669  -1.87141  -1.87141  -1.86500
 Alpha  occ. eigenvalues --   -0.72191  -0.66129  -0.38308  -0.38304  -0.32668
 Alpha  occ. eigenvalues --   -0.27729  -0.27729  -0.26206
 Alpha virt. eigenvalues --   -0.04124  -0.00979  -0.00975   0.05150   0.12079
 Alpha virt. eigenvalues --    0.13234   0.13238   0.18989   0.19008   0.23076
 Alpha virt. eigenvalues --    0.27580   0.27589   0.29993   0.29998   0.30230

 Mulliken atomic charges:
              1
     1  C   -0.714609
     2  Mg   0.039983
     3  Br   0.251553
     4  H    0.140891
     5  H    0.141194
     6  H    0.140988
 Sum of Mulliken atomic charges =  -0.00000

 Dipole moment (field-independent basis, Debye):
    X=             -4.4355    Y=              0.0011    Z=             -0.0202  Tot=              4.4355
 Quadrupole moment (field-independent basis, Debye-Ang):
   XX=            -47.6763   YY=            -37.3397   ZZ=            -39.5272
   XY=             -0.0001   XZ=             -0.0212   YZ=              0.7668

 Summary of Natural Population Analysis:

                                       Natural Population
                Natural  -----------------------------------------------
    Atom  No    Charge         Core      Valence    Rydberg      Total
 -----------------------------------------------------------------------
      C    1   -1.31008      1.99953     5.28950    0.02105     7.31008
     Mg    2    0.61535      9.99824     1.34412    0.04229    11.38465
     Br    3    0.01492     27.99960     6.97557    0.00991    34.98508
      H    4    0.22283      0.00000     0.77653    0.00064     0.77717
      H    5    0.22286      0.00000     0.77649    0.00065     0.77714
      H    6    0.22295      0.00000     0.77641    0.00063     0.77705
 =======================================================================
   * Total *   -0.01117     39.99737    15.93863    0.07518    56.01117

 Normal termination of Gaussian 09 at Mon Oct  4 21:40:30 2021.
