 Gaussian 09, Revision A.02,

 -----------------------------------
 #p opt b3lyp/6-31G* scf=(xqc,tight)
 -----------------------------------

 --------------
 C[Mg]Cl_conf_0
 --------------
 Symbolic Z-matrix:
 Charge =  0 Multiplicity = 1

 SCF Done:  E(RB3LYP) =  -700.260078490     A.U. after   10 cycles
 SCF Done:  E(RB3LYP) =  -700.265331582     A.U. after   11 cycles
 SCF Done:  E(RB3LYP) =  -700.265992230     A.U. after   10 cycles
 SCF Done:  E(RB3LYP) =  -700.265783460     A.U. after   10 cycles
 SCF Done:  E(RB3LYP) =  -700.266004423     A.U. after   10 cycles
 SCF Done:  E(RB3LYP) =  -700.266030256     A.U. after   12 cycles
 SCF Done:  E(RB3LYP) =  -700.266031183     A.U. after    9 cycles
 Optimization completed.
    -- Stationary point found.
 Normal termination of Gaussian 09 at Mon Oct  4 21:32:29 2021.

 ----------------------------------------------------------------------
 #p freq b3lyp/6-31G* volume NMR pop=NPA density=current Geom=AllCheck
 Guess=Read
 ----------------------------------------------------------------------

 C[Mg]Cl_conf_0
 --------------
 Redundant internal coordinates taken from checkpoint file:
 CH3ClMg_0924_conf_0.chk
 Charge =  0 Multiplicity = 1

 SCF Done:  E(RB3LYP) =  -700.266031183     A.U. after    1 cycles

  1  C    Isotropic =   208.0458   Anisotropy =     4.6561

  2  Mg   Isotropic =   512.0670   Anisotropy =   301.3716

  3  Cl   Isotropic =  1018.1230   Anisotropy =   198.7419

  4  H    Isotropic =    32.9488   Anisotropy =    11.1319

  5  H    Isotropic =    32.9481   Anisotropy =    11.1323

  6  H    Isotropic =    32.9484   Anisotropy =    11.1335

  Exact polarizability:  62.133  -0.001  35.597  -0.003   0.000  35.598
 Approx polarizability:  78.231  -0.001  45.620  -0.002   0.000  45.620

                     1                      2                      3
                     A                      A                      A
 Frequencies --   107.0363               107.6922               365.7103
 Red. masses --     5.3640                 5.3735                 7.3020
 Frc consts  --     0.0362                 0.0367                 0.5754
 IR Inten    --    29.3629                29.4307                16.5858

                     4                      5                      6
                     A                      A                      A
 Frequencies --   622.3425               623.0859               623.5174
 Red. masses --     8.0253                 1.2260                 1.2215
 Frc consts  --     1.8313                 0.2804                 0.2798
 IR Inten    --    78.3786                92.8231                92.7962

                     7                      8                      9
                     A                      A                      A
 Frequencies --  1208.3489              1490.8268              1490.9936
 Red. masses --     1.1960                 1.0580                 1.0580
 Frc consts  --     1.0289                 1.3855                 1.3858
 IR Inten    --     4.2758                 0.0624                 0.0616

                    10                     11                     12
                     A                      A                      A
 Frequencies --  3037.7310              3114.3796              3114.6282
 Red. masses --     1.0324                 1.0995                 1.0995
 Frc consts  --     5.6132                 6.2832                 6.2843
 IR Inten    --    17.1212                13.1446                13.1195

 - Thermochemistry -
 -------------------
 Temperature   298.150 Kelvin.  Pressure   1.00000 Atm.
 Atom     1 has atomic number  6 and mass  12.00000

 Molecular mass:    73.97737 amu.
 Principal axes and moments of inertia in atomic units:
                           1         2         3
     Eigenvalues --    11.25263 774.10165 774.10215
           X            1.00000  -0.00001  -0.00002
           Y            0.00001   0.99992  -0.01285
           Z            0.00002   0.01285   0.99992
 This molecule is an asymmetric top.
 Rotational symmetry number  1.
 Rotational temperatures (Kelvin)      7.69720     0.11189     0.11189
 Rotational constants (GHZ):         160.38389     2.33140     2.33140
 Zero-point vibrational energy      95140.8 (Joules/Mol)
                                   22.73919 (Kcal/Mol)
 Warning -- explicit consideration of   3 degrees of freedom as
           vibrations may cause significant error
 Vibrational temperatures:    154.00   154.94   526.17   895.41   896.48
          (Kelvin)            897.10  1738.54  2144.96  2145.20  4370.61
                             4480.89  4481.25

 Zero-point correction=                           0.036237 (Hartree/Particle)
 Thermal correction to Energy=                    0.041325
 Thermal correction to Enthalpy=                  0.042269
 Thermal correction to Gibbs Free Energy=         0.008404
 Sum of electronic and zero-point Energies=           -700.229794
 Sum of electronic and thermal Energies=              -700.224706
 Sum of electronic and thermal Enthalpies=            -700.223762
 Sum of electronic and thermal Free Energies=         -700.257627

                     E (Thermal)             CV                S
                      KCal/Mol        Cal/Mol-Kelvin    Cal/Mol-Kelvin
 Total                   25.932             14.696             71.276
 Electronic               0.000              0.000              0.000
 Translational            0.889              2.981             38.820
 Rotational               0.889              2.981             23.426
 Vibrational             24.154              8.734              9.030
 Vibration     1          0.606              1.944              3.322
 Vibration     2          0.606              1.943              3.310
 Vibration     3          0.739              1.543              1.098

 Optimization completed.
    -- Stationary point found.
 Normal termination of Gaussian 09 at Mon Oct  4 21:35:26 2021.
 Gaussian 09:  AM64L-G09RevA.02 11-Jun-2009

 ----------------------------------------------------------------------
 #p TD(NStates=10, Root=1) b3lyp/6-31G* volume pop=NPA density=current
 Geom=AllCheck Guess=Read
 ----------------------------------------------------------------------

 C[Mg]Cl_conf_0
 --------------
 Redundant internal coordinates taken from checkpoint file:
 CH3ClMg_0924_conf_0.chk
 Charge =  0 Multiplicity = 1

                         Standard orientation:
 ---------------------------------------------------------------------
 Center     Atomic      Atomic             Coordinates (Angstroms)
 Number     Number       Type             X           Y           Z
 ---------------------------------------------------------------------
      1          6           0       -2.548653    0.000183    0.000213
      2         12           0       -0.468490   -0.000268   -0.000431
      3         17           0        1.750655    0.000093    0.000142
      4          1           0       -2.948501   -0.054718    1.019869
      5          1           0       -2.949476   -0.855227   -0.556735
      6          1           0       -2.949348    0.910470   -0.461664
 ---------------------------------------------------------------------

 SCF Done:  E(RB3LYP) =  -700.266031183     A.U. after    1 cycles

 Excitation energies and oscillator strengths:

 Excited State   1:      Singlet-A      5.6948 eV  217.72 nm  f=0.2991  <S**2>=0.000
      19 -> 20         0.69507
 This state for optimization and/or second-order correction.
 Total Energy, E(TD-HF/TD-KS) =  -700.056751881
 Copying the excited state density for this state as the 1-particle RhoCI density.

 Excited State   2:      Singlet-A      5.8201 eV  213.03 nm  f=0.0145  <S**2>=0.000
      17 -> 20         0.58666
      18 -> 20        -0.32692
      19 -> 21        -0.21330

 Excited State   3:      Singlet-A      5.8201 eV  213.03 nm  f=0.0145  <S**2>=0.000
      17 -> 20         0.32694
      18 -> 20         0.58671
      19 -> 22        -0.21313

 Excited State   4:      Singlet-A      6.0442 eV  205.13 nm  f=0.0974  <S**2>=0.000
      17 -> 20         0.19379
      19 -> 21         0.66820

 Excited State   5:      Singlet-A      6.0444 eV  205.12 nm  f=0.0974  <S**2>=0.000
      18 -> 20         0.19364
      19 -> 22         0.66826

 Excited State   6:      Singlet-A      6.7604 eV  183.40 nm  f=0.0000  <S**2>=0.000
      17 -> 21         0.17770
      17 -> 22        -0.46187
      18 -> 21         0.47286
      18 -> 22         0.17385

 Excited State   7:      Singlet-A      6.7693 eV  183.16 nm  f=0.0000  <S**2>=0.000
      17 -> 21        -0.49051
      18 -> 22         0.49231

 Excited State   8:      Singlet-A      6.7693 eV  183.16 nm  f=0.0000  <S**2>=0.000
      17 -> 22         0.49609
      18 -> 21         0.48668

 Excited State   9:      Singlet-A      6.9838 eV  177.53 nm  f=0.0105  <S**2>=0.000
      16 -> 20         0.51065
      17 -> 21         0.31534
      17 -> 22         0.11871
      18 -> 21        -0.11860
      18 -> 22         0.31564

 Excited State  10:      Singlet-A      7.6354 eV  162.38 nm  f=0.0030  <S**2>=0.000
      16 -> 20        -0.23045
      19 -> 23         0.64769

 The electronic state is 1-A.
 Alpha  occ. eigenvalues -- -101.49586 -46.83817 -10.15900  -9.41303  -7.17219
 Alpha  occ. eigenvalues --   -7.16954  -7.16954  -3.12697  -1.87311  -1.87311
 Alpha  occ. eigenvalues --   -1.86639  -0.76385  -0.66364  -0.38546  -0.38545
 Alpha  occ. eigenvalues --   -0.33980  -0.29555  -0.29555  -0.26597
 Alpha virt. eigenvalues --   -0.04411  -0.00970  -0.00969   0.05079   0.12846
 Alpha virt. eigenvalues --    0.13261   0.13262   0.19319   0.19321   0.23298
 Alpha virt. eigenvalues --    0.28350   0.28353   0.31382   0.31384   0.31776

 Mulliken atomic charges:
              1
     1  C   -0.625806
     2  Mg   0.156340
     3  Cl  -0.188012
     4  H    0.219080
     5  H    0.219346
     6  H    0.219053
 Sum of Mulliken atomic charges =  -0.00000

 Dipole moment (field-independent basis, Debye):
    X=             -5.0953    Y=              0.0212    Z=              0.0118  Tot=              5.0953
 Quadrupole moment (field-independent basis, Debye-Ang):
   XX=            -32.0633   YY=            -34.1765   ZZ=            -34.1777
   XY=             -0.0101   XZ=             -0.0061   YZ=              0.0008

 Summary of Natural Population Analysis:

                                       Natural Population
                Natural  -----------------------------------------------
    Atom  No    Charge         Core      Valence    Rydberg      Total
 -----------------------------------------------------------------------
      C    1   -0.99390      1.99949     4.95715    0.03726     6.99390
     Mg    2    0.96032      9.99579     0.99433    0.04957    11.03968
     Cl    3   -0.65131      9.99987     7.64336    0.00808    17.65131
      H    4    0.22823      0.00000     0.76919    0.00258     0.77177
      H    5    0.22843      0.00000     0.76899    0.00258     0.77157
      H    6    0.22822      0.00000     0.76920    0.00257     0.77178
 =======================================================================
   * Total *   -0.00000     21.99514    15.90221    0.10264    38.00000

 Normal termination of Gaussian 09 at Mon Oct  4 21:39:21 2021.
