 Gaussian 09, Revision A.02,

 -----------------------------------
 #p opt b3lyp/6-31G* scf=(xqc,tight)
 -----------------------------------

 ------------
 [Li]C_conf_0
 ------------
 Symbolic Z-matrix:
 Charge =  0 Multiplicity = 1

 SCF Done:  E(RB3LYP) =  -47.3997945670     A.U. after   11 cycles
 SCF Done:  E(RB3LYP) =  -47.4008676204     A.U. after   12 cycles
 SCF Done:  E(RB3LYP) =  -47.4010870986     A.U. after   12 cycles
 SCF Done:  E(RB3LYP) =  -47.4011177507     A.U. after   12 cycles
 SCF Done:  E(RB3LYP) =  -47.4011202712     A.U. after   11 cycles
 Optimization completed.
    -- Stationary point found.
 Normal termination of Gaussian 09 at Sun Oct  3 01:33:57 2021.

 ----------------------------------------------------------------------
 #p freq b3lyp/6-31G* volume NMR pop=NPA density=current Geom=AllCheck
 Guess=Read
 ----------------------------------------------------------------------

 [Li]C_conf_0
 ------------
 Redundant internal coordinates taken from checkpoint file:
 CH3Li_8d51_conf_0.chk
 Charge =  0 Multiplicity = 1

 SCF Done:  E(RB3LYP) =  -47.4011202712     A.U. after    1 cycles

  1  Li   Isotropic =    90.3659   Anisotropy =    21.8123

  2  C    Isotropic =   203.5379   Anisotropy =     5.2697

  3  H    Isotropic =    33.4666   Anisotropy =    10.0887

  4  H    Isotropic =    33.4673   Anisotropy =    10.0897

  5  H    Isotropic =    33.4686   Anisotropy =    10.0933

  Exact polarizability:  46.037  -0.197  30.866   0.056   0.002  30.937
 Approx polarizability:  47.314   0.001  34.614   0.001  -0.000  34.615

                     1                      2                      3
                     A                      A                      A
 Frequencies --   490.7132               491.3046               640.5915
 Red. masses --     1.2235                 1.2235                 5.8452
 Frc consts  --     0.1736                 0.1740                 1.4132
 IR Inten    --   221.6125               221.8051                13.5074

                     4                      5                      6
                     A                      A                      A
 Frequencies --  1136.8190              1491.0223              1491.4727
 Red. masses --     1.1859                 1.0619                 1.0618
 Frc consts  --     0.9030                 1.3909                 1.3916
 IR Inten    --    41.2678                 8.2353                 8.1305

                     7                      8                      9
                     A                      A                      A
 Frequencies --  2982.1538              3048.0720              3048.1381
 Red. masses --     1.0319                 1.0969                 1.0969
 Frc consts  --     5.4066                 6.0044                 6.0047
 IR Inten    --    74.3620                43.3595                43.5168

 - Thermochemistry -
 -------------------
 Temperature   298.150 Kelvin.  Pressure   1.00000 Atm.
 Atom     1 has atomic number  3 and mass   7.01600

 Molecular mass:    22.03948 amu.
 Principal axes and moments of inertia in atomic units:
                           1         2         3
     Eigenvalues --    11.18394  79.88874  79.88902
           X            1.00000  -0.00000   0.00000
           Y            0.00000   1.00000   0.00000
           Z           -0.00000  -0.00000   1.00000
 This molecule is an asymmetric top.
 Rotational symmetry number  1.
 Rotational temperatures (Kelvin)      7.74448     1.08418     1.08418
 Rotational constants (GHZ):         161.36895    22.59068    22.59060
 Zero-point vibrational energy      88645.0 (Joules/Mol)
                                   21.18666 (Kcal/Mol)
 Warning -- explicit consideration of   2 degrees of freedom as
           vibrations may cause significant error
 Vibrational temperatures:    706.03   706.88   921.67  1635.63  2145.25
          (Kelvin)           2145.89  4290.65  4385.49  4385.59

 Zero-point correction=                           0.033763 (Hartree/Particle)
 Thermal correction to Energy=                    0.037228
 Thermal correction to Enthalpy=                  0.038172
 Thermal correction to Gibbs Free Energy=         0.011592
 Sum of electronic and zero-point Energies=            -47.367357
 Sum of electronic and thermal Energies=               -47.363892
 Sum of electronic and thermal Enthalpies=             -47.362948
 Sum of electronic and thermal Free Energies=          -47.389528

                     E (Thermal)             CV                S
                      KCal/Mol        Cal/Mol-Kelvin    Cal/Mol-Kelvin
 Total                   23.361              9.854             55.942
 Electronic               0.000              0.000              0.000
 Translational            0.889              2.981             35.210
 Rotational               0.889              2.981             18.907
 Vibrational             21.584              3.892              1.825
 Vibration     1          0.847              1.271              0.682
 Vibration     2          0.847              1.269              0.680

 Optimization completed.
    -- Stationary point found.
 Normal termination of Gaussian 09 at Sun Oct  3 01:37:07 2021.
 Gaussian 09:  AM64L-G09RevA.02 11-Jun-2009

 ----------------------------------------------------------------------
 #p TD(NStates=10, Root=1) b3lyp/6-31G* volume pop=NPA density=current
 Geom=AllCheck Guess=Read
 ----------------------------------------------------------------------

 [Li]C_conf_0
 ------------
 Redundant internal coordinates taken from checkpoint file:
 CH3Li_8d51_conf_0.chk
 Charge =  0 Multiplicity = 1

                         Standard orientation:
 ---------------------------------------------------------------------
 Center     Atomic      Atomic             Coordinates (Angstroms)
 Number     Number       Type             X           Y           Z
 ---------------------------------------------------------------------
      1          3           0       -1.589829   -0.000002   -0.000001
      2          6           0        0.389525    0.000004   -0.000007
      3          1           0        0.810762   -0.180561    1.001621
      4          1           0        0.810783    0.957709   -0.344424
      5          1           0        0.810796   -0.777164   -0.657148
 ---------------------------------------------------------------------

 SCF Done:  E(RB3LYP) =  -47.4011202712     A.U. after    1 cycles

 Excitation energies and oscillator strengths:

 Excited State   1:      Singlet-A      2.7746 eV  446.86 nm  f=0.1043  <S**2>=0.000
       6 ->  7         0.70598
 This state for optimization and/or second-order correction.
 Total Energy, E(TD-HF/TD-KS) =  -47.2991567355
 Copying the excited state density for this state as the 1-particle RhoCI density.

 Excited State   2:      Singlet-A      3.9552 eV  313.47 nm  f=0.0971  <S**2>=0.000
       6 ->  8         0.70633

 Excited State   3:      Singlet-A      3.9556 eV  313.44 nm  f=0.0972  <S**2>=0.000
       6 ->  9         0.70633

 Excited State   4:      Singlet-A      4.9026 eV  252.89 nm  f=0.0059  <S**2>=0.000
       6 -> 10         0.70584

 Excited State   5:      Singlet-A      6.4551 eV  192.07 nm  f=0.0150  <S**2>=0.000
       5 ->  7         0.70468

 Excited State   6:      Singlet-A      6.4553 eV  192.07 nm  f=0.0150  <S**2>=0.000
       4 ->  7         0.70467

 Excited State   7:      Singlet-A      6.9382 eV  178.70 nm  f=0.0147  <S**2>=0.000
       6 -> 11         0.70461

 Excited State   8:      Singlet-A      7.0849 eV  175.00 nm  f=0.0261  <S**2>=0.000
       6 -> 12         0.67709
       6 -> 13         0.19353

 Excited State   9:      Singlet-A      7.0849 eV  175.00 nm  f=0.0261  <S**2>=0.000
       6 -> 12        -0.19353
       6 -> 13         0.67709

 Excited State  10:      Singlet-A      7.9474 eV  156.01 nm  f=0.0000  <S**2>=0.000
       4 ->  8         0.43670
       4 ->  9         0.23949
       5 ->  8         0.24743
       5 ->  9        -0.43517

 The electronic state is 1-A.
 Alpha  occ. eigenvalues --  -10.08359  -1.97432  -0.58853  -0.31190  -0.31190
 Alpha  occ. eigenvalues --   -0.16930
 Alpha virt. eigenvalues --   -0.04299   0.01288   0.01289   0.04759   0.12536
 Alpha virt. eigenvalues --    0.12754   0.12754   0.24703   0.24704   0.25784
 Alpha virt. eigenvalues --    0.31129   0.47492   0.47494   0.48827   0.48827

 Mulliken atomic charges:
              1
     1  Li   0.088728
     2  C   -0.714008
     3  H    0.208430
     4  H    0.208430
     5  H    0.208421
 Sum of Mulliken atomic charges =  -0.00000

 Dipole moment (field-independent basis, Debye):
    X=              5.0897    Y=             -0.0000    Z=             -0.0001  Tot=              5.0897
 Quadrupole moment (field-independent basis, Debye-Ang):
   XX=            -33.3757   YY=            -13.8299   ZZ=            -13.8300
   XY=             -0.0001   XZ=              0.0003   YZ=             -0.0000

 Summary of Natural Population Analysis:

                                       Natural Population
                Natural  -----------------------------------------------
    Atom  No    Charge         Core      Valence    Rydberg      Total
 -----------------------------------------------------------------------
     Li    1    0.19249      1.99682     0.80167    0.00902     2.80751
      C    2   -0.83189      1.99937     4.80194    0.03057     6.83189
      H    3    0.20582      0.00000     0.79418    0.00000     0.79418
      H    4    0.20582      0.00000     0.79418    0.00000     0.79418
      H    5    0.20582      0.00000     0.79418    0.00000     0.79418
 =======================================================================
   * Total *   -0.02193      3.99619     7.98615    0.03959    12.02193

 Normal termination of Gaussian 09 at Sun Oct  3 01:42:43 2021.
