 Gaussian 09, Revision A.02,

 -----------------------------------
 #p opt b3lyp/6-31G* scf=(xqc,tight)
 -----------------------------------

 ------------
 O=C=O_conf_0
 ------------
 Symbolic Z-matrix:
 Charge =  0 Multiplicity = 1

 SCF Done:  E(RB3LYP) =  -188.577985015     A.U. after   10 cycles
 SCF Done:  E(RB3LYP) =  -188.580936853     A.U. after    9 cycles
 SCF Done:  E(RB3LYP) =  -188.580940224     A.U. after    6 cycles
 Optimization completed.
    -- Stationary point found.

 1\1\GINC-HERMITE\FOpt\RB3LYP\6-31G(d)\C1O2\JSCHLEINITZ\04-Oct-2021\0\\
 #p opt b3lyp/6-31G* scf=(xqc,tight)\\O=C=O_conf_0\\0,1\O,1.1549961505,
 -0.0085297109,0.0842044204\C,2.3241621781,-0.0085297109,0.0842044204\O
 ,3.4933282058,-0.0085297109,0.0842044204\\Version=AM64L-G09RevA.02\Sta
 te=1-SGG\HF=-188.5809402\RMSD=5.928e-09\RMSF=9.311e-07\Dipole=0.,0.,0.
 \Quadrupole=-2.2123814,1.1061907,1.1061907,0.,0.,0.\PG=D*H [O(C1),C*(O
 1.O1)]\\@

 Normal termination of Gaussian 09 at Mon Oct  4 09:06:49 2021.

 ----------------------------------------------------------------------
 #p freq b3lyp/6-31G* volume NMR pop=NPA density=current Geom=AllCheck
 Guess=Read
 ----------------------------------------------------------------------

 O=C=O_conf_0
 ------------
 Redundant internal coordinates taken from checkpoint file:
 CO2_6690_conf_0.chk
 Charge =  0 Multiplicity = 1

 SCF Done:  E(RB3LYP) =  -188.580940224     A.U. after    1 cycles

  1  O    Isotropic =   223.0414   Anisotropy =   286.0309

  2  C    Isotropic =    74.7110   Anisotropy =   314.9090

  3  O    Isotropic =   223.0414   Anisotropy =   286.0309

  Exact polarizability:   7.689  -0.000   7.689   0.000   0.000  22.074
 Approx polarizability:   9.915  -0.000   9.915  -0.000  -0.000  46.781

                     1                      2                      3
                    PIU                    PIU                    SGG
 Frequencies --   640.0726               640.0726              1372.0534
 Red. masses --    12.8774                12.8774                15.9949
 Frc consts  --     3.1084                 3.1084                17.7408
 IR Inten    --    30.7178                30.7178                 0.0000

                     4
                    SGU
 Frequencies --  2436.3490
 Red. masses --    12.8774
 Frc consts  --    45.0356
 IR Inten    --   545.7096

 - Thermochemistry -
 -------------------
 Temperature   298.150 Kelvin.  Pressure   1.00000 Atm.
 Atom     1 has atomic number  8 and mass  15.99491

 Molecular mass:    43.98983 amu.
 Principal axes and moments of inertia in atomic units:
                           1         2         3
     Eigenvalues --     0.00000 156.15721 156.15721
           X           -0.00000   1.00000  -0.00000
           Y            0.00000   0.00000   1.00000
           Z            1.00000   0.00000  -0.00000
 This molecule is a prolate symmetric top.
 Rotational symmetry number  2.
 Rotational temperature (Kelvin)      0.55466
 Rotational constant (GHZ):          11.557207
 Zero-point vibrational energy      30436.3 (Joules/Mol)
                                    7.27444 (Kcal/Mol)
 Vibrational temperatures:    920.92   920.92  1974.08  3505.36
          (Kelvin)

 Zero-point correction=                           0.011593 (Hartree/Particle)
 Thermal correction to Energy=                    0.014240
 Thermal correction to Enthalpy=                  0.015184
 Thermal correction to Gibbs Free Energy=        -0.009126
 Sum of electronic and zero-point Energies=           -188.569348
 Sum of electronic and thermal Energies=              -188.566700
 Sum of electronic and thermal Enthalpies=            -188.565756
 Sum of electronic and thermal Free Energies=         -188.590066

                     E (Thermal)             CV                S
                      KCal/Mol        Cal/Mol-Kelvin    Cal/Mol-Kelvin
 Total                    8.936              6.983             51.165
 Electronic               0.000              0.000              0.000
 Translational            0.889              2.981             37.270
 Rotational               0.592              1.987             13.103
 Vibrational              7.454              2.015              0.792

 Optimization completed.
    -- Stationary point found.

 1\1\GINC-HERMITE\Freq\RB3LYP\6-31G(d)\C1O2\JSCHLEINITZ\04-Oct-2021\0\\
 #p freq b3lyp/6-31G* volume NMR pop=NPA density=current Geom=AllCheck
 Guess=Read\\O=C=O_conf_0\\0,1\O,1.1549961505,-0.0085297109,0.084204420
 4\C,2.3241621781,-0.0085297109,0.0842044204\O,3.4933282058,-0.00852971
 09,0.0842044204\\Version=AM64L-G09RevA.02\State=1-SGG\HF=-188.5809402\
 RMSD=9.731e-10\RMSF=9.235e-07\ZeroPoint=0.0115926\Thermal=0.0142399\Di
 pole=0.,0.,0.\DipoleDeriv=-1.1050848,0.,0.,0.,-0.2621862,0.,0.,0.,-0.2
 621862,2.2101695,0.,0.,0.,0.5243724,0.,0.,0.,0.5243724,-1.1050848,0.,0

 Normal termination of Gaussian 09 at Mon Oct  4 09:08:09 2021.
 Gaussian 09:  AM64L-G09RevA.02 11-Jun-2009

 ----------------------------------------------------------------------
 #p TD(NStates=10, Root=1) b3lyp/6-31G* volume pop=NPA density=current
 Geom=AllCheck Guess=Read
 ----------------------------------------------------------------------

 O=C=O_conf_0
 ------------
 Redundant internal coordinates taken from checkpoint file:
 CO2_6690_conf_0.chk
 Charge =  0 Multiplicity = 1

                         Standard orientation:
 ---------------------------------------------------------------------
 Center     Atomic      Atomic             Coordinates (Angstroms)
 Number     Number       Type             X           Y           Z
 ---------------------------------------------------------------------
      1          8           0        0.000000    0.000000    1.169166
      2          6           0        0.000000    0.000000    0.000000
      3          8           0        0.000000    0.000000   -1.169166
 ---------------------------------------------------------------------

 SCF Done:  E(RB3LYP) =  -188.580940224     A.U. after    1 cycles

 Excitation energies and oscillator strengths:

 Excited state symmetry could not be determined.
 Excited State   1:      Singlet-?Sym    8.6222 eV  143.80 nm  f=0.0000  <S**2>=0.000
      10 -> 13        -0.50012
      11 -> 12         0.50012
 This state for optimization and/or second-order correction.
 Total Energy, E(TD-HF/TD-KS) =  -188.264078656
 Copying the excited state density for this state as the 1-particle RhoCI density.

 Excited state symmetry could not be determined.
 Excited State   2:      Singlet-?Sym    8.9407 eV  138.67 nm  f=0.0000  <S**2>=0.000
      10 -> 12         0.49992
      11 -> 13        -0.49992

 Excited state symmetry could not be determined.
 Excited State   3:      Singlet-?Sym    8.9407 eV  138.67 nm  f=0.0000  <S**2>=0.000
      10 -> 13         0.49992
      11 -> 12         0.49992

 Excited state symmetry could not be determined.
 Excited State   4:      Singlet-?Sym   10.5133 eV  117.93 nm  f=0.0000  <S**2>=0.000
      10 -> 14         0.46806
      11 -> 14         0.52915

 Excited state symmetry could not be determined.
 Excited State   5:      Singlet-?Sym   10.5133 eV  117.93 nm  f=0.0000  <S**2>=0.000
      10 -> 14         0.52915
      11 -> 14        -0.46806

 Excited state symmetry could not be determined.
 Excited State   6:      Singlet-?Sym   12.4110 eV   99.90 nm  f=0.0000  <S**2>=0.000
       8 -> 13        -0.49981
       9 -> 12         0.49981

 Excited state symmetry could not be determined.
 Excited State   7:      Singlet-?Sym   12.6894 eV   97.71 nm  f=0.0000  <S**2>=0.000
       8 -> 13         0.49981
       9 -> 12         0.49981

 Excited state symmetry could not be determined.
 Excited State   8:      Singlet-?Sym   12.6894 eV   97.71 nm  f=0.0000  <S**2>=0.000
       8 -> 12         0.49981
       9 -> 13        -0.49981

 Excited State   9:      Singlet-SGU   12.8169 eV   96.73 nm  f=0.3438  <S**2>=0.000
       7 -> 14         0.42261
      10 -> 12         0.40224
      11 -> 13         0.40224

 Excited state symmetry could not be determined.
 Excited State  10:      Singlet-?Sym   13.1420 eV   94.34 nm  f=0.0000  <S**2>=0.000
       7 -> 12         0.70561

 The electronic state is 1-SGG.
 Alpha  occ. eigenvalues --  -19.23659 -19.23659 -10.38530  -1.16098  -1.11964
 Alpha  occ. eigenvalues --   -0.56234  -0.51655  -0.51277  -0.51277  -0.36997
 Alpha  occ. eigenvalues --   -0.36997
 Alpha virt. eigenvalues --    0.02991   0.02991   0.08433   0.36578   0.47260
 Alpha virt. eigenvalues --    0.47260   0.58434   0.73524   0.78154   0.87419
 Alpha virt. eigenvalues --    0.87419   1.03773   1.04165   1.04165   1.37741

 Mulliken atomic charges:
              1
     1  O   -0.219047
     2  C    0.438093
     3  O   -0.219047
 Sum of Mulliken atomic charges =  -0.00000

 Dipole moment (field-independent basis, Debye):
    X=              0.0000    Y=             -0.0000    Z=              0.0000  Tot=              0.0000
 Quadrupole moment (field-independent basis, Debye-Ang):
   XX=            -14.6264   YY=            -14.6264   ZZ=            -17.8290
   XY=              0.0000   XZ=             -0.0000   YZ=             -0.0000

 Summary of Natural Population Analysis:

                                       Natural Population
                Natural  -----------------------------------------------
    Atom  No    Charge         Core      Valence    Rydberg      Total
 -----------------------------------------------------------------------
      O    1   -0.26537      1.99982     6.24966    0.01588     8.26537
      C    2    0.53074      1.99989     3.41235    0.05703     5.46926
      O    3   -0.26537      1.99982     6.24966    0.01588     8.26537
 =======================================================================
   * Total *   -0.00000      5.99953    15.91167    0.08880    22.00000

 Normal termination of Gaussian 09 at Mon Oct  4 09:12:05 2021.
