 Gaussian 09, Revision A.02,
 Gaussian 09:  AM64L-G09RevA.02 11-Jun-2009

 ----------------------------------
 #p b3lyp 6-31G* opt scf(xqc,tight)
 ----------------------------------

 ---------------
 opt calculation
 ---------------
 Symbolic Z-matrix:
 Charge =  0 Multiplicity = 1

 SCF Done:  E(RB3LYP) =  -669.312102494     A.U. after   15 cycles
 SCF Done:  E(RB3LYP) =  -669.315228907     A.U. after   12 cycles
 SCF Done:  E(RB3LYP) =  -669.315212510     A.U. after   12 cycles
 SCF Done:  E(RB3LYP) =  -669.315445086     A.U. after   12 cycles
 SCF Done:  E(RB3LYP) =  -669.315515413     A.U. after   11 cycles
 SCF Done:  E(RB3LYP) =  -669.315637496     A.U. after   10 cycles
 SCF Done:  E(RB3LYP) =  -669.315682956     A.U. after   11 cycles
 SCF Done:  E(RB3LYP) =  -669.315718030     A.U. after   11 cycles
 SCF Done:  E(RB3LYP) =  -669.315733447     A.U. after   10 cycles
 SCF Done:  E(RB3LYP) =  -669.315745163     A.U. after   10 cycles
 SCF Done:  E(RB3LYP) =  -669.315797745     A.U. after    9 cycles
 SCF Done:  E(RB3LYP) =  -669.315798807     A.U. after   10 cycles
 SCF Done:  E(RB3LYP) =  -669.315799459     A.U. after   10 cycles
 SCF Done:  E(RB3LYP) =  -669.315799691     A.U. after   10 cycles
 SCF Done:  E(RB3LYP) =  -669.315799846     A.U. after    7 cycles
 SCF Done:  E(RB3LYP) =  -669.315800374     A.U. after    9 cycles
 SCF Done:  E(RB3LYP) =  -669.315800119     A.U. after   10 cycles
 SCF Done:  E(RB3LYP) =  -669.315800614     A.U. after    9 cycles
 SCF Done:  E(RB3LYP) =  -669.315800621     A.U. after    6 cycles
 SCF Done:  E(RB3LYP) =  -669.315800622     A.U. after    6 cycles
 Optimization completed.
    -- Stationary point found.

                         Standard orientation:
 ---------------------------------------------------------------------
 Center     Atomic      Atomic             Coordinates (Angstroms)
 Number     Number       Type             X           Y           Z
 ---------------------------------------------------------------------
      1          6           0        4.967489   -0.860688    0.181013
      2          8           0        4.229837    0.282131   -0.217939
      3          6           0        2.870117    0.252788   -0.076654
      4          6           0        2.190017    1.404979   -0.495811
      5          6           0        0.805924    1.472763   -0.398711
      6          6           0        0.090598    0.394341    0.123957
      7          8           0       -1.284778    0.575246    0.273758
      8          6           0       -2.150708   -0.402247   -0.163795
      9          8           0       -1.796531   -1.444949   -0.680881
     10          7           0       -3.446794   -0.040152    0.074104
     11          6           0       -4.508055   -0.929406   -0.369578
     12          6           0       -3.863416    1.233352    0.640141
     13          6           0        0.754042   -0.751071    0.550570
     14          6           0        2.145875   -0.824937    0.445844
     15          1           0        6.014555   -0.627970   -0.022192
     16          1           0        4.676441   -1.750840   -0.392740
     17          1           0        4.844716   -1.068530    1.252614
     18          1           0        2.765340    2.232823   -0.897732
     19          1           0        0.268500    2.358808   -0.722045
     20          1           0       -5.106441   -0.455700   -1.160039
     21          1           0       -5.174840   -1.171440    0.468114
     22          1           0       -4.062021   -1.844416   -0.756070
     23          1           0       -2.999518    1.786008    1.000698
     24          1           0       -4.550607    1.059746    1.478342
     25          1           0       -4.389411    1.839849   -0.110856
     26          1           0        0.193556   -1.588659    0.946310
     27          1           0        2.647773   -1.727281    0.775508
 ---------------------------------------------------------------------

 The electronic state is 1-A.
 Alpha  occ. eigenvalues --  -19.18977 -19.17407 -19.11244 -14.36736 -10.32959
 Alpha  occ. eigenvalues --  -10.24287 -10.23960 -10.23873 -10.22066 -10.21538
 Alpha  occ. eigenvalues --  -10.18857 -10.18757 -10.18672 -10.18396  -1.10073
 Alpha  occ. eigenvalues --   -1.05979  -1.00960  -0.93891  -0.84736  -0.75793
 Alpha  occ. eigenvalues --   -0.74812  -0.72497  -0.71174  -0.68075  -0.62351
 Alpha  occ. eigenvalues --   -0.60221  -0.55917  -0.53206  -0.52593  -0.49367
 Alpha  occ. eigenvalues --   -0.48380  -0.47293  -0.46525  -0.45243  -0.44427
 Alpha  occ. eigenvalues --   -0.42949  -0.42438  -0.41903  -0.40613  -0.40501
 Alpha  occ. eigenvalues --   -0.39848  -0.39260  -0.37875  -0.36862  -0.35894
 Alpha  occ. eigenvalues --   -0.32915  -0.31976  -0.29476  -0.26938  -0.24748
 Alpha  occ. eigenvalues --   -0.24177  -0.20782
 Alpha virt. eigenvalues --    0.00165   0.01700   0.05947   0.09218   0.09334
 Alpha virt. eigenvalues --    0.10972   0.12634   0.13849   0.14403   0.15302
 Alpha virt. eigenvalues --    0.15403   0.15782   0.16188   0.16753   0.17316

 Mulliken atomic charges:
              1
     1  C   -0.214521
     2  O   -0.510101
     3  C    0.382367
     4  C   -0.183901
     5  C   -0.168566
     6  C    0.354222
     7  O   -0.562842
     8  C    0.782835
     9  O   -0.513031
    10  N   -0.435913
    11  C   -0.316957
    12  C   -0.315366
    13  C   -0.142305
    14  C   -0.211174
    15  H    0.168632
    16  H    0.153055
    17  H    0.150335
    18  H    0.140134
    19  H    0.136532
    20  H    0.153041
    21  H    0.152284
    22  H    0.204690
    23  H    0.198793
    24  H    0.154725
    25  H    0.154205
    26  H    0.153751
    27  H    0.135076
 Sum of Mulliken atomic charges =  -0.00000

 Dipole moment (field-independent basis, Debye):
    X=             -0.9333    Y=              0.6187    Z=              1.3390  Tot=              1.7455
 Quadrupole moment (field-independent basis, Debye-Ang):
   XX=            -59.8811   YY=            -79.6795   ZZ=            -83.2604
   XY=             -8.9842   XZ=              0.1661   YZ=             -3.8921

 Normal termination of Gaussian 09 at Fri Sep  3 02:09:59 2021.
