 Gaussian 09, Revision A.02,
 Gaussian 09:  AM64L-G09RevA.02 11-Jun-2009

 ----------------------------------
 #p b3lyp 6-31G* opt scf(xqc,tight)
 ----------------------------------

 ---------------
 opt calculation
 ---------------
 Symbolic Z-matrix:
 Charge =  0 Multiplicity = 1

 SCF Done:  E(RB3LYP) =  -559.357054967     A.U. after   14 cycles
 SCF Done:  E(RB3LYP) =  -559.359536258     A.U. after   15 cycles
 SCF Done:  E(RB3LYP) =  -559.359814441     A.U. after   12 cycles
 SCF Done:  E(RB3LYP) =  -559.359805900     A.U. after   12 cycles
 SCF Done:  E(RB3LYP) =  -559.359834967     A.U. after   10 cycles
 SCF Done:  E(RB3LYP) =  -559.359844748     A.U. after    9 cycles
 SCF Done:  E(RB3LYP) =  -559.359845767     A.U. after    8 cycles
 Optimization completed.
    -- Stationary point found.

                         Standard orientation:
 ---------------------------------------------------------------------
 Center     Atomic      Atomic             Coordinates (Angstroms)
 Number     Number       Type             X           Y           Z
 ---------------------------------------------------------------------
      1          6           0       -4.660547   -0.046688   -0.423444
      2          8           0       -3.689372   -0.387215    0.550868
      3          6           0       -2.376407   -0.128744    0.269584
      4          6           0       -1.457053   -0.490975    1.266384
      5          6           0       -0.099527   -0.270483    1.078680
      6          6           0        0.385712    0.311166   -0.104754
      7          6           0        1.870303    0.612363   -0.278104
      8          6           0        2.234755    1.862281    0.545666
      9          7           0        2.687075   -0.557317    0.097602
     10          6           0        2.424550   -1.694124   -0.781613
     11          6           0        4.120062   -0.286739    0.139256
     12          6           0       -0.539949    0.659133   -1.088218
     13          6           0       -1.912962    0.449747   -0.915739
     14          1           0       -4.501536   -0.593793   -1.362597
     15          1           0       -5.624986   -0.333058    0.000557
     16          1           0       -4.663510    1.031498   -0.633427
     17          1           0       -1.834396   -0.945502    2.177528
     18          1           0        0.608915   -0.568391    1.846213
     19          1           0        2.039435    0.863217   -1.346521
     20          1           0        3.235720    2.238114    0.311730
     21          1           0        2.183181    1.645786    1.618718
     22          1           0        1.519934    2.661235    0.326761
     23          1           0        1.360913   -1.942282   -0.770306
     24          1           0        2.721713   -1.502559   -1.832207
     25          1           0        2.983862   -2.566175   -0.426048
     26          1           0        4.646294   -1.213793    0.390021
     27          1           0        4.526516    0.079788   -0.825043
     28          1           0        4.359101    0.446187    0.913073
     29          1           0       -0.191086    1.104759   -2.017802
     30          1           0       -2.598232    0.732288   -1.707005
 ---------------------------------------------------------------------

 The electronic state is 1-A.
 Alpha  occ. eigenvalues --  -19.17295 -14.32005 -10.24031 -10.23825 -10.21322
 Alpha  occ. eigenvalues --  -10.19617 -10.19148 -10.18393 -10.18218 -10.17974
 Alpha  occ. eigenvalues --  -10.17915 -10.17762 -10.17201  -1.05853  -0.91466
 Alpha  occ. eigenvalues --   -0.84359  -0.77151  -0.74179  -0.72801  -0.70015
 Alpha  occ. eigenvalues --   -0.68120  -0.64251  -0.60478  -0.59024  -0.55232
 Alpha  occ. eigenvalues --   -0.52661  -0.48655  -0.47895  -0.46449  -0.45886
 Alpha  occ. eigenvalues --   -0.44698  -0.44133  -0.42185  -0.42000  -0.41136
 Alpha  occ. eigenvalues --   -0.39732  -0.38780  -0.38315  -0.37023  -0.36177
 Alpha  occ. eigenvalues --   -0.35652  -0.34692  -0.34262  -0.32670  -0.31909
 Alpha  occ. eigenvalues --   -0.30529  -0.24368  -0.21124  -0.20675
 Alpha virt. eigenvalues --    0.00513   0.01784   0.09186   0.09893   0.11178
 Alpha virt. eigenvalues --    0.12648   0.13412   0.14164   0.14773   0.15505
 Alpha virt. eigenvalues --    0.15799   0.16273   0.16755   0.16876   0.17085

 Mulliken atomic charges:
              1
     1  C   -0.213001
     2  O   -0.507810
     3  C    0.373576
     4  C   -0.173706
     5  C   -0.172077
     6  C    0.137588
     7  C    0.004563
     8  C   -0.461604
     9  N   -0.379436
    10  C   -0.302571
    11  C   -0.297091
    12  C   -0.200015
    13  C   -0.195952
    14  H    0.150024
    15  H    0.167957
    16  H    0.150088
    17  H    0.135267
    18  H    0.141122
    19  H    0.098786
    20  H    0.145756
    21  H    0.155303
    22  H    0.152809
    23  H    0.165983
    24  H    0.113366
    25  H    0.144379
    26  H    0.146904
    27  H    0.114330
    28  H    0.155399
    29  H    0.122405
    30  H    0.127658
 Sum of Mulliken atomic charges =  -0.00000

 Dipole moment (field-independent basis, Debye):
    X=             -0.3996    Y=              0.5454    Z=             -1.3731  Tot=              1.5305
 Quadrupole moment (field-independent basis, Debye-Ang):
   XX=            -68.3067   YY=            -79.9776   ZZ=            -78.2846
   XY=             -1.0388   XZ=              4.3902   YZ=             -1.0118

 Normal termination of Gaussian 09 at Fri Sep  3 00:39:14 2021.
