 Gaussian 09, Revision A.02,
 Gaussian 09:  AM64L-G09RevA.02 11-Jun-2009

 ----------------------------------
 #p b3lyp 6-31G* opt scf(xqc,tight)
 ----------------------------------

 ---------------
 opt calculation
 ---------------
 Symbolic Z-matrix:
 Charge =  0 Multiplicity = 1

 SCF Done:  E(RB3LYP) =  -577.826663989     A.U. after   14 cycles
 SCF Done:  E(RB3LYP) =  -577.828361282     A.U. after   12 cycles
 SCF Done:  E(RB3LYP) =  -577.828749004     A.U. after   12 cycles
 SCF Done:  E(RB3LYP) =  -577.828793082     A.U. after   10 cycles
 SCF Done:  E(RB3LYP) =  -577.828802202     A.U. after   10 cycles
 SCF Done:  E(RB3LYP) =  -577.828802759     A.U. after    8 cycles
 Optimization completed.
    -- Stationary point found.

                         Standard orientation:
 ---------------------------------------------------------------------
 Center     Atomic      Atomic             Coordinates (Angstroms)
 Number     Number       Type             X           Y           Z
 ---------------------------------------------------------------------
      1          6           0       -4.864703   -0.660433    0.211704
      2          8           0       -4.025490    0.432686   -0.122865
      3          6           0       -2.673678    0.248419   -0.070675
      4          6           0       -1.891983    1.360644   -0.416112
      5          6           0       -0.507405    1.275501   -0.394016
      6          6           0        0.151066    0.085333   -0.028889
      7          6           0        1.632615    0.000679   -0.005048
      8          6           0        2.298878   -1.168689   -0.410917
      9          6           0        3.690337   -1.249619   -0.384373
     10          6           0        4.450946   -0.160097    0.043922
     11          6           0        3.804745    1.009813    0.447305
     12          6           0        2.413037    1.087976    0.424990
     13          6           0       -0.648382   -1.013735    0.312492
     14          6           0       -2.042909   -0.945739    0.295404
     15          1           0       -4.707124   -0.989148    1.247649
     16          1           0       -4.708154   -1.512338   -0.463479
     17          1           0       -5.888242   -0.297325    0.101417
     18          1           0       -2.394999    2.277316   -0.708232
     19          1           0        0.078739    2.140948   -0.690271
     20          1           0        1.719500   -2.012579   -0.775442
     21          1           0        4.181785   -2.163002   -0.709830
     22          1           0        5.535714   -0.221861    0.062568
     23          1           0        4.385289    1.862343    0.790611
     24          1           0        1.921354    1.993739    0.769330
     25          1           0       -0.175841   -1.940718    0.625607
     26          1           0       -2.619478   -1.819183    0.578265
 ---------------------------------------------------------------------

 The electronic state is 1-A.
 Alpha  occ. eigenvalues --  -19.17787 -10.24592 -10.24169 -10.19424 -10.19002
 Alpha  occ. eigenvalues --  -10.18914 -10.18790 -10.18713 -10.18600 -10.18586
 Alpha  occ. eigenvalues --  -10.18469 -10.18408 -10.18398 -10.18301  -1.06357
 Alpha  occ. eigenvalues --   -0.86056  -0.83901  -0.77263  -0.74810  -0.73805
 Alpha  occ. eigenvalues --   -0.72803  -0.68840  -0.61760  -0.60895  -0.58941
 Alpha  occ. eigenvalues --   -0.57054  -0.53514  -0.51275  -0.48113  -0.47352
 Alpha  occ. eigenvalues --   -0.46842  -0.44348  -0.43944  -0.43666  -0.42136
 Alpha  occ. eigenvalues --   -0.41452  -0.41030  -0.38149  -0.37725  -0.36237
 Alpha  occ. eigenvalues --   -0.35632  -0.33786  -0.33619  -0.32276  -0.31756
 Alpha  occ. eigenvalues --   -0.25505  -0.24883  -0.24534  -0.20436
 Alpha virt. eigenvalues --   -0.01719  -0.00078   0.00474   0.04077   0.09509
 Alpha virt. eigenvalues --    0.09990   0.10913   0.13203   0.13778   0.14766
 Alpha virt. eigenvalues --    0.15380   0.15966   0.16468   0.16684   0.17933

 Mulliken atomic charges:
              1
     1  C   -0.214828
     2  O   -0.506743
     3  C    0.378274
     4  C   -0.177256
     5  C   -0.178561
     6  C    0.088066
     7  C    0.091069
     8  C   -0.175423
     9  C   -0.133678
    10  C   -0.128272
    11  C   -0.133523
    12  C   -0.175951
    13  C   -0.185700
    14  C   -0.199802
    15  H    0.152192
    16  H    0.151989
    17  H    0.169951
    18  H    0.138254
    19  H    0.133646
    20  H    0.128786
    21  H    0.127954
    22  H    0.127250
    23  H    0.128336
    24  H    0.130152
    25  H    0.132671
    26  H    0.131147
 Sum of Mulliken atomic charges =  -0.00000

 Dipole moment (field-independent basis, Debye):
    X=             -0.9002    Y=             -1.0995    Z=              0.3440  Tot=              1.4621
 Quadrupole moment (field-independent basis, Debye-Ang):
   XX=            -68.2553   YY=            -74.5046   ZZ=            -84.8688
   XY=              5.5723   XZ=             -1.5169   YZ=              0.2914

 Normal termination of Gaussian 09 at Fri Sep  3 00:35:28 2021.
