 Gaussian 09, Revision A.02,
 Gaussian 09:  AM64L-G09RevA.02 11-Jun-2009

 ----------------------------------
 #p b3lyp 6-31G* opt scf(xqc,tight)
 ----------------------------------

 ---------------
 opt calculation
 ---------------
 Symbolic Z-matrix:
 Charge =  0 Multiplicity = 1

 SCF Done:  E(RB3LYP) =  -731.468518081     A.U. after   14 cycles
 SCF Done:  E(RB3LYP) =  -731.472996559     A.U. after   12 cycles
 SCF Done:  E(RB3LYP) =  -731.473704847     A.U. after   12 cycles
 SCF Done:  E(RB3LYP) =  -731.473825603     A.U. after   12 cycles
 SCF Done:  E(RB3LYP) =  -731.473846367     A.U. after   10 cycles
 SCF Done:  E(RB3LYP) =  -731.473849649     A.U. after    8 cycles
 SCF Done:  E(RB3LYP) =  -731.473849821     A.U. after    8 cycles
 Optimization completed.
    -- Stationary point found.

                         Standard orientation:
 ---------------------------------------------------------------------
 Center     Atomic      Atomic             Coordinates (Angstroms)
 Number     Number       Type             X           Y           Z
 ---------------------------------------------------------------------
      1          6           0        5.761708   -0.901409    0.143645
      2          8           0        5.113843    0.341511   -0.074039
      3          6           0        3.749704    0.361650   -0.071573
      4          6           0        3.178777    1.645458   -0.298133
      5          6           0        1.817607    1.803644   -0.321219
      6          6           0        0.943290    0.697743   -0.118683
      7          6           0       -0.465771    0.833980   -0.139516
      8          6           0       -1.310298   -0.248930    0.051367
      9          6           0       -2.786356   -0.091919    0.025276
     10          6           0       -3.403445    1.046874    0.571363
     11          6           0       -4.788730    1.198300    0.539196
     12          6           0       -5.591606    0.211447   -0.036040
     13          6           0       -4.994380   -0.927453   -0.579174
     14          6           0       -3.608613   -1.076994   -0.548622
     15          6           0       -0.720485   -1.526556    0.272164
     16          6           0        0.644854   -1.691263    0.299294
     17          6           0        1.521745   -0.591351    0.104894
     18          6           0        2.936024   -0.736417    0.126306
     19          1           0        6.832476   -0.694018    0.100970
     20          1           0        5.500614   -1.631893   -0.633561
     21          1           0        5.510157   -1.318528    1.127769
     22          1           0        3.852724    2.482773   -0.450017
     23          1           0        1.388001    2.787361   -0.494957
     24          1           0       -0.885739    1.817025   -0.338724
     25          1           0       -2.790522    1.807132    1.047684
     26          1           0       -5.242648    2.084863    0.974588
     27          1           0       -6.671760    0.328007   -0.059064
     28          1           0       -5.608146   -1.699443   -1.036251
     29          1           0       -3.154674   -1.955626   -0.998698
     30          1           0       -1.366967   -2.381436    0.449430
     31          1           0        1.070059   -2.675782    0.481039
     32          1           0        3.351539   -1.723349    0.298837
 ---------------------------------------------------------------------

 The electronic state is 1-A.
 Alpha  occ. eigenvalues --  -19.18008 -10.24816 -10.24218 -10.19678 -10.19556
 Alpha  occ. eigenvalues --  -10.19391 -10.19212 -10.19156 -10.18783 -10.18735
 Alpha  occ. eigenvalues --  -10.18723 -10.18718 -10.18637 -10.18631 -10.18625
 Alpha  occ. eigenvalues --  -10.18575 -10.18550 -10.18468  -1.06577  -0.87148
 Alpha  occ. eigenvalues --   -0.85145  -0.81786  -0.77386  -0.76142  -0.74088
 Alpha  occ. eigenvalues --   -0.73310  -0.71593  -0.69236  -0.62459  -0.61711
 Alpha  occ. eigenvalues --   -0.60259  -0.58782  -0.57682  -0.52998  -0.52288
 Alpha  occ. eigenvalues --   -0.50777  -0.49149  -0.46962  -0.46228  -0.45955
 Alpha  occ. eigenvalues --   -0.44611  -0.44358  -0.42936  -0.42244  -0.41646
 Alpha  occ. eigenvalues --   -0.40983  -0.40482  -0.38944  -0.37600  -0.36668
 Alpha  occ. eigenvalues --   -0.36193  -0.34884  -0.34671  -0.33719  -0.33126
 Alpha  occ. eigenvalues --   -0.32187  -0.30008  -0.28184  -0.24674  -0.24573
 Alpha  occ. eigenvalues --   -0.22538  -0.19886
 Alpha virt. eigenvalues --   -0.03602  -0.01758   0.00240   0.02469   0.03807
 Alpha virt. eigenvalues --    0.09616   0.09919   0.10484   0.10831   0.11860
 Alpha virt. eigenvalues --    0.12966   0.13982   0.14858   0.15430   0.16381

 Mulliken atomic charges:
              1
     1  C   -0.213763
     2  O   -0.508490
     3  C    0.375774
     4  C   -0.170750
     5  C   -0.194047
     6  C    0.140676
     7  C   -0.261149
     8  C    0.088463
     9  C    0.089237
    10  C   -0.172323
    11  C   -0.134423
    12  C   -0.127433
    13  C   -0.133750
    14  C   -0.175684
    15  C   -0.176868
    16  C   -0.203306
    17  C    0.142602
    18  C   -0.278862
    19  H    0.170093
    20  H    0.153235
    21  H    0.153278
    22  H    0.140495
    23  H    0.132693
    24  H    0.130937
    25  H    0.131025
    26  H    0.129137
    27  H    0.128207
    28  H    0.129007
    29  H    0.131113
    30  H    0.130846
    31  H    0.125246
    32  H    0.128783
 Sum of Mulliken atomic charges =  -0.00000

 Dipole moment (field-independent basis, Debye):
    X=              0.8290    Y=             -0.9918    Z=              0.1745  Tot=              1.3043
 Quadrupole moment (field-independent basis, Debye-Ang):
   XX=            -87.8235   YY=            -93.7843   ZZ=           -108.0567
   XY=             -7.0678   XZ=              1.5680   YZ=              0.8479

 Normal termination of Gaussian 09 at Fri Sep  3 01:02:47 2021.
