 Gaussian 09, Revision A.02,
 Gaussian 09:  AM64L-G09RevA.02 11-Jun-2009

 ----------------------------------
 #p b3lyp 6-31G* opt scf(xqc,tight)
 ----------------------------------

 ---------------
 opt calculation
 ---------------
 Symbolic Z-matrix:
 Charge =  0 Multiplicity = 1

 SCF Done:  E(RB3LYP) =  -947.209636660     A.U. after   14 cycles
 SCF Done:  E(RB3LYP) =  -947.215420638     A.U. after   12 cycles
 SCF Done:  E(RB3LYP) =  -947.216195499     A.U. after   12 cycles
 SCF Done:  E(RB3LYP) =  -947.216309651     A.U. after   11 cycles
 SCF Done:  E(RB3LYP) =  -947.216346192     A.U. after   10 cycles
 SCF Done:  E(RB3LYP) =  -947.216354499     A.U. after    9 cycles
 SCF Done:  E(RB3LYP) =  -947.216362309     A.U. after    9 cycles
 SCF Done:  E(RB3LYP) =  -947.216371766     A.U. after    9 cycles
 SCF Done:  E(RB3LYP) =  -947.216384087     A.U. after   10 cycles
 SCF Done:  E(RB3LYP) =  -947.216386724     A.U. after    9 cycles
 SCF Done:  E(RB3LYP) =  -947.216403733     A.U. after   15 cycles
 SCF Done:  E(RB3LYP) =  -947.216407061     A.U. after   10 cycles
 SCF Done:  E(RB3LYP) =  -947.216396994     A.U. after   10 cycles
 SCF Done:  E(RB3LYP) =  -947.216403258     A.U. after   10 cycles
 SCF Done:  E(RB3LYP) =  -947.216409194     A.U. after   10 cycles
 SCF Done:  E(RB3LYP) =  -947.216405665     A.U. after    9 cycles
 SCF Done:  E(RB3LYP) =  -947.216410591     A.U. after   10 cycles
 SCF Done:  E(RB3LYP) =  -947.216410413     A.U. after    9 cycles
 SCF Done:  E(RB3LYP) =  -947.216410872     A.U. after    8 cycles
 SCF Done:  E(RB3LYP) =  -947.216410914     A.U. after    6 cycles
 Optimization completed.
    -- Stationary point found.

                         Standard orientation:
 ---------------------------------------------------------------------
 Center     Atomic      Atomic             Coordinates (Angstroms)
 Number     Number       Type             X           Y           Z
 ---------------------------------------------------------------------
      1          6           0        4.924641    2.062899   -0.976469
      2          6           0        3.903060    1.802006   -0.156582
      3          6           0        3.809771    0.633542    0.782838
      4         14           0        2.504165   -0.642902    0.269917
      5          6           0        2.899724   -1.335644   -1.436185
      6          6           0        2.387381   -2.007637    1.566458
      7          8           0        1.079378    0.266385    0.244050
      8          6           0       -0.237693   -0.042575    0.069393
      9          6           0       -0.667296   -1.323513   -0.373637
     10          6           0       -2.007710   -1.584851   -0.541748
     11          6           0       -2.992073   -0.595867   -0.283651
     12          6           0       -4.381510   -0.839369   -0.449774
     13          6           0       -5.306839    0.146111   -0.190372
     14          6           0       -4.878579    1.423956    0.248540
     15          6           0       -3.539384    1.692010    0.419213
     16          6           0       -2.556889    0.696306    0.160021
     17          6           0       -1.171496    0.941698    0.327641
     18          1           0        4.911778    2.916276   -1.649019
     19          1           0        5.815242    1.437379   -1.002191
     20          1           0        3.035601    2.462289   -0.170763
     21          1           0        4.780407    0.123706    0.859665
     22          1           0        3.548951    0.976532    1.794738
     23          1           0        3.026727   -0.521581   -2.157981
     24          1           0        3.838580   -1.903300   -1.408719
     25          1           0        2.120212   -2.005184   -1.815322
     26          1           0        1.595781   -2.730715    1.340497
     27          1           0        2.178968   -1.588102    2.557475
     28          1           0        3.332584   -2.561010    1.630774
     29          1           0        0.065810   -2.095271   -0.585476
     30          1           0       -2.327365   -2.567339   -0.881580
     31          1           0       -4.702785   -1.822457   -0.787039
     32          1           0       -6.367360   -0.051155   -0.320750
     33          1           0       -5.616312    2.196049    0.450919
     34          1           0       -3.212642    2.673107    0.755846
     35          1           0       -0.828163    1.915908    0.663579
 ---------------------------------------------------------------------

 The electronic state is 1-A.
 Alpha  occ. eigenvalues --  -66.15353 -19.15689 -10.24905 -10.19422 -10.19204
 Alpha  occ. eigenvalues --  -10.19063 -10.19023 -10.18826 -10.18627 -10.18612
 Alpha  occ. eigenvalues --  -10.18410 -10.18396 -10.17822 -10.17506 -10.17131
 Alpha  occ. eigenvalues --  -10.16915 -10.16619  -5.29447  -3.65560  -3.65248
 Alpha  occ. eigenvalues --   -3.65208  -1.02861  -0.86497  -0.81110  -0.78002
 Alpha  occ. eigenvalues --   -0.76667  -0.73186  -0.71823  -0.70506  -0.68424
 Alpha  occ. eigenvalues --   -0.67364  -0.62275  -0.61174  -0.59185  -0.55125
 Alpha  occ. eigenvalues --   -0.54482  -0.51072  -0.49877  -0.46531  -0.45934
 Alpha  occ. eigenvalues --   -0.44512  -0.43647  -0.42635  -0.42379  -0.41965
 Alpha  occ. eigenvalues --   -0.41247  -0.41050  -0.40827  -0.39953  -0.39616
 Alpha  occ. eigenvalues --   -0.39133  -0.38100  -0.37474  -0.36657  -0.34935
 Alpha  occ. eigenvalues --   -0.34381  -0.33615  -0.32584  -0.31405  -0.30135
 Alpha  occ. eigenvalues --   -0.29480  -0.27389  -0.23858  -0.22911  -0.20160
 Alpha virt. eigenvalues --   -0.03229   0.00082   0.02348   0.03876   0.06806
 Alpha virt. eigenvalues --    0.07890   0.09352   0.09459   0.10547   0.11474
 Alpha virt. eigenvalues --    0.11839   0.12223   0.12914   0.13956   0.14806

 Mulliken atomic charges:
              1
     1  C   -0.345710
     2  C   -0.047095
     3  C   -0.517555
     4  Si   0.898730
     5  C   -0.686872
     6  C   -0.684693
     7  O   -0.631836
     8  C    0.399265
     9  C   -0.193218
    10  C   -0.205890
    11  C    0.140499
    12  C   -0.191926
    13  C   -0.138813
    14  C   -0.136087
    15  C   -0.192101
    16  C    0.139773
    17  C   -0.263426
    18  H    0.137435
    19  H    0.128778
    20  H    0.142383
    21  H    0.156020
    22  H    0.166426
    23  H    0.183776
    24  H    0.162409
    25  H    0.164674
    26  H    0.168825
    27  H    0.172525
    28  H    0.164258
    29  H    0.135946
    30  H    0.131461
    31  H    0.126536
    32  H    0.126648
    33  H    0.127759
    34  H    0.128201
    35  H    0.132896
 Sum of Mulliken atomic charges =  -0.00000

 Dipole moment (field-independent basis, Debye):
    X=              0.7085    Y=             -1.4021    Z=              0.1904  Tot=              1.5824
 Quadrupole moment (field-independent basis, Debye-Ang):
   XX=           -100.3881   YY=           -101.6019   ZZ=           -110.2810
   XY=             -4.2972   XZ=              1.2195   YZ=              2.3216

 Normal termination of Gaussian 09 at Fri Sep  3 05:47:26 2021.
