 Gaussian 09, Revision A.02,
 Gaussian 09:  AM64L-G09RevA.02 11-Jun-2009

 ----------------------------------
 #p b3lyp 6-31G* opt scf(xqc,tight)
 ----------------------------------

 ---------------
 opt calculation
 ---------------
 Symbolic Z-matrix:
 Charge =  0 Multiplicity = 1

 SCF Done:  E(RB3LYP) =  -972.970297753     A.U. after   14 cycles
 SCF Done:  E(RB3LYP) =  -972.978290385     A.U. after   12 cycles
 SCF Done:  E(RB3LYP) =  -972.979420054     A.U. after   12 cycles
 SCF Done:  E(RB3LYP) =  -972.979596199     A.U. after   11 cycles
 SCF Done:  E(RB3LYP) =  -972.979656061     A.U. after   11 cycles
 SCF Done:  E(RB3LYP) =  -972.979679027     A.U. after   11 cycles
 SCF Done:  E(RB3LYP) =  -972.979682918     A.U. after   10 cycles
 SCF Done:  E(RB3LYP) =  -972.979683091     A.U. after    7 cycles
 SCF Done:  E(RB3LYP) =  -972.979683549     A.U. after    7 cycles
 SCF Done:  E(RB3LYP) =  -972.979683449     A.U. after    7 cycles
 SCF Done:  E(RB3LYP) =  -972.979683520     A.U. after    6 cycles
 SCF Done:  E(RB3LYP) =  -972.979683385     A.U. after    6 cycles
 Optimization completed.
    -- Stationary point found.

                         Standard orientation:
 ---------------------------------------------------------------------
 Center     Atomic      Atomic             Coordinates (Angstroms)
 Number     Number       Type             X           Y           Z
 ---------------------------------------------------------------------
      1          6           0       -3.751571    3.164942   -0.264216
      2          8           0       -2.538005    2.404120   -0.212730
      3          6           0       -2.640511    1.078503   -0.104236
      4          7           0       -3.854377    0.521787   -0.046809
      5          6           0       -3.823014   -0.814672    0.061427
      6          8           0       -4.975577   -1.483112    0.127035
      7          6           0       -6.192085   -0.727944    0.075898
      8          7           0       -2.735904   -1.581436    0.114383
      9          6           0       -1.600194   -0.884852    0.045098
     10          8           0       -0.498315   -1.654351    0.086077
     11          6           0        0.778604   -1.082494    0.069908
     12          6           0        1.592727   -1.349639   -1.025604
     13          6           0        2.906212   -0.886418   -1.026624
     14          6           0        3.435040   -0.155398    0.050669
     15          6           0        4.893663    0.335872    0.003357
     16          6           0        5.290603    1.115563    1.271120
     17          6           0        5.842323   -0.879258   -0.130806
     18          6           0        5.083303    1.270442   -1.215022
     19          6           0        2.583697    0.088981    1.137943
     20          6           0        1.265883   -0.370594    1.158376
     21          7           0       -1.470787    0.436657   -0.064531
     22          1           0       -4.340465    3.022992    0.646063
     23          1           0       -4.356154    2.878217   -1.128996
     24          1           0       -3.429842    4.203341   -0.351865
     25          1           0       -6.267893   -0.170914   -0.861993
     26          1           0       -6.253516   -0.027608    0.913438
     27          1           0       -6.987843   -1.470825    0.142300
     28          1           0        1.195667   -1.919139   -1.860027
     29          1           0        3.527538   -1.104649   -1.890571
     30          1           0        4.672607    2.009926    1.409470
     31          1           0        5.207670    0.498111    2.172792
     32          1           0        6.333052    1.443588    1.190856
     33          1           0        6.886698   -0.546147   -0.172044
     34          1           0        5.735176   -1.556963    0.723883
     35          1           0        5.641039   -1.455312   -1.040008
     36          1           0        4.857714    0.762076   -2.158285
     37          1           0        6.120321    1.624447   -1.266914
     38          1           0        4.427954    2.145791   -1.142735
     39          1           0        2.941293    0.645980    1.996503
     40          1           0        0.623547   -0.173441    2.010051
 ---------------------------------------------------------------------

 The electronic state is 1-A.
 Alpha  occ. eigenvalues --  -19.19899 -19.19810 -19.19710 -14.33826 -14.33165
 Alpha  occ. eigenvalues --  -14.32833 -10.32587 -10.32421 -10.32403 -10.24682
 Alpha  occ. eigenvalues --  -10.24551 -10.24491 -10.20289 -10.19143 -10.18823
 Alpha  occ. eigenvalues --  -10.18820 -10.18711 -10.18640 -10.17324 -10.17287
 Alpha  occ. eigenvalues --  -10.17257  -1.11195  -1.09709  -1.09518  -0.99557
 Alpha  occ. eigenvalues --   -0.89854  -0.89655  -0.85670  -0.81170  -0.75164
 Alpha  occ. eigenvalues --   -0.74599  -0.73828  -0.72918  -0.68398  -0.68187
 Alpha  occ. eigenvalues --   -0.66273  -0.64415  -0.60902  -0.60357  -0.58022
 Alpha  occ. eigenvalues --   -0.56470  -0.54646  -0.52481  -0.50944  -0.50358
 Alpha  occ. eigenvalues --   -0.47851  -0.47804  -0.47522  -0.44971  -0.44531
 Alpha  occ. eigenvalues --   -0.44386  -0.43953  -0.43634  -0.42724  -0.42093
 Alpha  occ. eigenvalues --   -0.41626  -0.39386  -0.39103  -0.38793  -0.38694
 Alpha  occ. eigenvalues --   -0.37693  -0.37361  -0.37117  -0.36402  -0.35399
 Alpha  occ. eigenvalues --   -0.35049  -0.34775  -0.32690  -0.32284  -0.31661
 Alpha  occ. eigenvalues --   -0.30352  -0.28087  -0.27975  -0.27253  -0.26761
 Alpha  occ. eigenvalues --   -0.24784  -0.23000
 Alpha virt. eigenvalues --   -0.01425  -0.01235   0.00119   0.00919   0.08050
 Alpha virt. eigenvalues --    0.09633   0.10821   0.11668   0.12246   0.12409
 Alpha virt. eigenvalues --    0.13234   0.13504   0.13868   0.14875   0.15045

 Mulliken atomic charges:
              1
     1  C   -0.209218
     2  O   -0.456321
     3  C    0.681530
     4  N   -0.550395
     5  C    0.681261
     6  O   -0.454959
     7  C   -0.208609
     8  N   -0.488541
     9  C    0.659128
    10  O   -0.528342
    11  C    0.350965
    12  C   -0.155771
    13  C   -0.201932
    14  C    0.190402
    15  C    0.015148
    16  C   -0.457903
    17  C   -0.438607
    18  C   -0.438464
    19  C   -0.211226
    20  C   -0.130221
    21  N   -0.495868
    22  H    0.167381
    23  H    0.167952
    24  H    0.171551
    25  H    0.166817
    26  H    0.166523
    27  H    0.171959
    28  H    0.142134
    29  H    0.129767
    30  H    0.146848
    31  H    0.145565
    32  H    0.141498
    33  H    0.138293
    34  H    0.148032
    35  H    0.142635
    36  H    0.142503
    37  H    0.137893
    38  H    0.149714
    39  H    0.131195
    40  H    0.139684
 Sum of Mulliken atomic charges =  -0.00000

 Dipole moment (field-independent basis, Debye):
    X=             -1.4332    Y=              3.0084    Z=             -0.1596  Tot=              3.3361
 Quadrupole moment (field-independent basis, Debye-Ang):
   XX=            -92.1699   YY=           -126.0085   ZZ=           -117.8461
   XY=            -11.0123   XZ=              0.1193   YZ=              2.8617

 Normal termination of Gaussian 09 at Fri Sep  3 02:18:43 2021.
