 Gaussian 09, Revision A.02,
 Gaussian 09:  AM64L-G09RevA.02 11-Jun-2009

 ----------------------------------
 #p b3lyp 6-31G* opt scf(xqc,tight)
 ----------------------------------

 ---------------
 opt calculation
 ---------------
 Symbolic Z-matrix:
 Charge =  0 Multiplicity = 1

 SCF Done:  E(RB3LYP) =  -617.109739984     A.U. after   14 cycles
 SCF Done:  E(RB3LYP) =  -617.114694481     A.U. after   12 cycles
 SCF Done:  E(RB3LYP) =  -617.114983354     A.U. after   10 cycles
 SCF Done:  E(RB3LYP) =  -617.115000177     A.U. after    8 cycles
 SCF Done:  E(RB3LYP) =  -617.115002169     A.U. after    8 cycles
 SCF Done:  E(RB3LYP) =  -617.115002475     A.U. after    7 cycles
 Optimization completed.
    -- Stationary point found.

                         Standard orientation:
 ---------------------------------------------------------------------
 Center     Atomic      Atomic             Coordinates (Angstroms)
 Number     Number       Type             X           Y           Z
 ---------------------------------------------------------------------
      1          6           0        5.222606   -0.173084   -0.000002
      2          8           0        4.128004    0.727455    0.000001
      3          6           0        2.858376    0.217392    0.000001
      4          6           0        2.566784   -1.171635    0.000001
      5          6           0        1.255862   -1.599412    0.000000
      6          6           0        0.175655   -0.682547    0.000000
      7          6           0       -1.181648   -1.100511   -0.000000
      8          6           0       -2.227086   -0.198134   -0.000001
      9          6           0       -3.635972   -0.685761   -0.000001
     10          6           0       -4.738268    0.040828    0.750749
     11          6           0       -4.738269    0.040829   -0.750748
     12          6           0       -1.911264    1.193283   -0.000001
     13          6           0       -0.610955    1.634826   -0.000000
     14          6           0        0.477932    0.718029    0.000000
     15          6           0        1.826675    1.139415    0.000000
     16          1           0        6.119969    0.448831   -0.000003
     17          1           0        5.226917   -0.810086   -0.894784
     18          1           0        5.226920   -0.810088    0.894779
     19          1           0        3.367437   -1.902469    0.000001
     20          1           0        1.039822   -2.665358    0.000000
     21          1           0       -1.392301   -2.168567   -0.000000
     22          1           0       -3.714560   -1.770748   -0.000002
     23          1           0       -5.477019   -0.562203    1.271938
     24          1           0       -4.472094    0.959158    1.267301
     25          1           0       -4.472095    0.959160   -1.267299
     26          1           0       -5.477020   -0.562201   -1.271938
     27          1           0       -2.715693    1.924644   -0.000001
     28          1           0       -0.396983    2.701115   -0.000000
     29          1           0        2.070104    2.198057    0.000000
 ---------------------------------------------------------------------

 The electronic state is 1-A.
 Alpha  occ. eigenvalues --  -19.17372 -10.24306 -10.23976 -10.19459 -10.19099
 Alpha  occ. eigenvalues --  -10.19060 -10.18901 -10.18816 -10.18737 -10.18710
 Alpha  occ. eigenvalues --  -10.18684 -10.18394 -10.18298 -10.17988 -10.17697
 Alpha  occ. eigenvalues --   -1.05922  -0.86998  -0.85364  -0.80922  -0.76772
 Alpha  occ. eigenvalues --   -0.74156  -0.72407  -0.68899  -0.62548  -0.61707
 Alpha  occ. eigenvalues --   -0.59866  -0.59109  -0.56741  -0.52741  -0.51038
 Alpha  occ. eigenvalues --   -0.49996  -0.48207  -0.46567  -0.46451  -0.44688
 Alpha  occ. eigenvalues --   -0.43759  -0.43088  -0.41161  -0.39914  -0.38832
 Alpha  occ. eigenvalues --   -0.38748  -0.37020  -0.36717  -0.35138  -0.34538
 Alpha  occ. eigenvalues --   -0.33330  -0.31742  -0.31669  -0.29307  -0.28875
 Alpha  occ. eigenvalues --   -0.25716  -0.22526  -0.19191
 Alpha virt. eigenvalues --   -0.03045   0.00400   0.04091   0.09242   0.09804
 Alpha virt. eigenvalues --    0.10254   0.10255   0.11370   0.13125   0.13593
 Alpha virt. eigenvalues --    0.14667   0.15371   0.15642   0.16798   0.17376

 Mulliken atomic charges:
              1
     1  C   -0.213410
     2  O   -0.511703
     3  C    0.379715
     4  C   -0.196080
     5  C   -0.204635
     6  C    0.149243
     7  C   -0.289344
     8  C    0.238285
     9  C   -0.199833
    10  C   -0.310438
    11  C   -0.310438
    12  C   -0.213445
    13  C   -0.194493
    14  C    0.143309
    15  C   -0.262795
    16  H    0.169188
    17  H    0.150629
    18  H    0.150629
    19  H    0.131038
    20  H    0.129246
    21  H    0.119170
    22  H    0.138045
    23  H    0.154065
    24  H    0.158056
    25  H    0.158056
    26  H    0.154065
    27  H    0.122749
    28  H    0.127738
    29  H    0.133386
 Sum of Mulliken atomic charges =  -0.00000

 Dipole moment (field-independent basis, Debye):
    X=              0.5104    Y=             -1.1993    Z=             -0.0000  Tot=              1.3034
 Quadrupole moment (field-independent basis, Debye-Ang):
   XX=            -71.0039   YY=            -81.4597   ZZ=            -91.6571
   XY=             -4.0939   XZ=             -0.0000   YZ=             -0.0000

 Normal termination of Gaussian 09 at Fri Sep  3 00:39:14 2021.
