 Gaussian 09, Revision A.02,
 Gaussian 09:  AM64L-G09RevA.02 11-Jun-2009

 ---------------------------------------
 #p b3lyp 6-31G* opt freq scf(xqc,tight)
 ---------------------------------------

 ---------------
 opt calculation
 ---------------
 Symbolic Z-matrix:
 Charge =  0 Multiplicity = 1

 SCF Done:  E(RB3LYP) =  -500.410085350     A.U. after   14 cycles
 SCF Done:  E(RB3LYP) =  -500.413824212     A.U. after   14 cycles
 SCF Done:  E(RB3LYP) =  -500.414050403     A.U. after   10 cycles
 SCF Done:  E(RB3LYP) =  -500.414061937     A.U. after    8 cycles
 SCF Done:  E(RB3LYP) =  -500.414063202     A.U. after    8 cycles
 Optimization completed.
    -- Stationary point found.
 Normal termination of Gaussian 09 at Fri Sep 10 11:31:41 2021.

 --------------------------------------------------------------------
 #P Geom=AllCheck Guess=TCheck SCRF=Check GenChk RB3LYP/6-31G(d) Freq
 --------------------------------------------------------------------

 opt calculation
 ---------------
 Redundant internal coordinates taken from checkpoint file:
 opt.chk
 Charge =  0 Multiplicity = 1

                         Standard orientation:
 ---------------------------------------------------------------------
 Center     Atomic      Atomic             Coordinates (Angstroms)
 Number     Number       Type             X           Y           Z
 ---------------------------------------------------------------------
      1          6           0        4.048623    0.007443    0.000001
      2          8           0        2.905102   -0.831092   -0.000001
      3          6           0        1.665415   -0.254111   -0.000001
      4          6           0        1.449201    1.149204   -0.000001
      5          6           0        0.163267    1.645392   -0.000000
      6          6           0       -0.964307    0.787557   -0.000000
      7          6           0       -2.298378    1.277615    0.000000
      8          6           0       -3.367947    0.412490    0.000000
      9          6           0       -3.147878   -0.988927    0.000000
     10          6           0       -1.869453   -1.496412    0.000000
     11          6           0       -0.739678   -0.629790   -0.000000
     12          6           0        0.586510   -1.119917   -0.000000
     13          1           0        4.088316    0.642912   -0.894875
     14          1           0        4.088314    0.642911    0.894878
     15          1           0        4.909497   -0.663898    0.000002
     16          1           0        2.287701    1.836027   -0.000001
     17          1           0        0.003710    2.721293   -0.000000
     18          1           0       -2.458616    2.353642    0.000000
     19          1           0       -4.383863    0.797823    0.000001
     20          1           0       -3.999426   -1.664380    0.000000
     21          1           0       -1.702891   -2.571070    0.000000
     22          1           0        0.774189   -2.189793   -0.000000
 ---------------------------------------------------------------------

 SCF Done:  E(RB3LYP) =  -500.414063202     A.U. after    1 cycles

 The electronic state is 1-A.
 Alpha  occ. eigenvalues --  -19.17609 -10.24612 -10.24158 -10.19413 -10.19195
 Alpha  occ. eigenvalues --  -10.19061 -10.18999 -10.18591 -10.18579 -10.18363
 Alpha  occ. eigenvalues --  -10.18353 -10.17884  -1.06163  -0.86583  -0.81391
 Alpha  occ. eigenvalues --   -0.76972  -0.74102  -0.72566  -0.68611  -0.62398
 Alpha  occ. eigenvalues --   -0.59693  -0.59155  -0.52901  -0.51001  -0.50407
 Alpha  occ. eigenvalues --   -0.46766  -0.46096  -0.44768  -0.44025  -0.41730
 Alpha  occ. eigenvalues --   -0.40915  -0.40126  -0.38752  -0.38222  -0.34831
 Alpha  occ. eigenvalues --   -0.34307  -0.33762  -0.32005  -0.29881  -0.27270
 Alpha  occ. eigenvalues --   -0.22922  -0.19903
 Alpha virt. eigenvalues --   -0.03299   0.00360   0.03871   0.09271   0.10522
 Alpha virt. eigenvalues --    0.11088   0.11771   0.12530   0.14364   0.15487
 Alpha virt. eigenvalues --    0.16653   0.17374   0.17600   0.19168   0.20571

 Mulliken atomic charges:
              1
     1  C   -0.214231
     2  O   -0.510470
     3  C    0.380464
     4  C   -0.193120
     5  C   -0.204751
     6  C    0.139428
     7  C   -0.190292
     8  C   -0.139632
     9  C   -0.136134
    10  C   -0.191721
    11  C    0.141633
    12  C   -0.261238
    13  H    0.151439
    14  H    0.151439
    15  H    0.170256
    16  H    0.132221
    17  H    0.131117
    18  H    0.126337
    19  H    0.126464
    20  H    0.127667
    21  H    0.128354
    22  H    0.134768
 Sum of Mulliken atomic charges =  -0.00000

 Dipole moment (field-independent basis, Debye):
    X=              1.1424    Y=              1.1141    Z=              0.0000  Tot=              1.5957
 Quadrupole moment (field-independent basis, Debye-Ang):
   XX=            -56.5206   YY=            -64.1438   ZZ=            -73.5821
   XY=              3.5380   XZ=              0.0000   YZ=             -0.0000

  Exact polarizability: 193.288   5.447 120.503  -0.000  -0.000  44.525
 Approx polarizability: 305.823   7.681 217.481  -0.000  -0.000  67.861

                     1                      2                      3
                     A                      A                      A
 Frequencies --    64.7546               130.7940               183.4982
 Red. masses --     3.1513                 4.4007                 3.1792
 Frc consts  --     0.0078                 0.0444                 0.0631
 IR Inten    --     3.7332                 0.9765                 0.4085

                     4                      5                      6
                     A                      A                      A
 Frequencies --   211.2853               242.4715               312.1632
 Red. masses --     3.5752                 1.2234                 3.7368
 Frc consts  --     0.0940                 0.0424                 0.2145
 IR Inten    --     1.9022                 0.0540                 1.5062

                     7                      8                      9
                     A                      A                      A
 Frequencies --   341.4541               401.2016               415.6542
 Red. masses --     3.9486                 5.4060                 3.3620
 Frc consts  --     0.2712                 0.5127                 0.3422
 IR Inten    --     1.0877                 0.1358                 0.1853

                    10                     11                     12
                     A                      A                      A
 Frequencies --   486.3175               525.2448               542.8044
 Red. masses --     2.5750                 6.5154                 3.6076
 Frc consts  --     0.3588                 1.0590                 0.6263
 IR Inten    --     9.3601                 0.7298                 0.1905

                    13                     14                     15
                     A                      A                      A
 Frequencies --   557.2796               631.8142               653.7147
 Red. masses --     4.5239                 6.5612                 2.9680
 Frc consts  --     0.8278                 1.5432                 0.7473
 IR Inten    --     8.7839                 5.1807                 0.0005

                    16                     17                     18
                     A                      A                      A
 Frequencies --   714.3874               762.6934               768.4266
 Red. masses --     5.7989                 1.3300                 3.0085
 Frc consts  --     1.7437                 0.4558                 1.0467
 IR Inten    --     8.2513                18.1192                 3.8323

                    19                     20                     21
                     A                      A                      A
 Frequencies --   783.3576               819.6805               866.4902
 Red. masses --     4.7596                 1.4215                 1.4563
 Frc consts  --     1.7209                 0.5627                 0.6442
 IR Inten    --     0.6285                30.0620                25.8723

                    22                     23                     24
                     A                      A                      A
 Frequencies --   891.7731               898.1596               944.1276
 Red. masses --     1.5984                 5.1359                 1.2776
 Frc consts  --     0.7489                 2.4410                 0.6710
 IR Inten    --    13.9273                 4.0393                 0.3440

                    25                     26                     27
                     A                      A                      A
 Frequencies --   957.0087               969.0647               986.4625
 Red. masses --     1.3463                 4.3272                 1.2643
 Frc consts  --     0.7265                 2.3942                 0.7249
 IR Inten    --     2.7606                 2.6085                 0.0400

                    28                     29                     30
                     A                      A                      A
 Frequencies --  1048.0507              1081.5437              1160.1725
 Red. masses --     2.3446                 3.5343                 1.7302
 Frc consts  --     1.5173                 2.4358                 1.3721
 IR Inten    --     3.9060                44.6104                23.7952

                    31                     32                     33
                     A                      A                      A
 Frequencies --  1184.0562              1186.3887              1190.9637
 Red. masses --     1.2673                 1.2118                 1.2673
 Frc consts  --     1.0468                 1.0049                 1.0591
 IR Inten    --     0.6921                 2.4631                 0.4871

                    34                     35                     36
                     A                      A                      A
 Frequencies --  1204.6780              1220.1705              1269.0474
 Red. masses --     1.5088                 1.4969                 1.8687
 Frc consts  --     1.2901                 1.3131                 1.7731
 IR Inten    --    83.3531                 9.1014                31.3449

                    37                     38                     39
                     A                      A                      A
 Frequencies --  1295.2467              1315.8886              1399.7488
 Red. masses --     1.7643                 3.1009                 2.6481
 Frc consts  --     1.7439                 3.1636                 3.0570
 IR Inten    --     7.0958               290.1286                12.5915

                    40                     41                     42
                     A                      A                      A
 Frequencies --  1413.4252              1420.5339              1489.0519
 Red. masses --     2.6871                 5.9794                 2.5617
 Frc consts  --     3.1628                 7.1091                 3.3465
 IR Inten    --     5.8025                 0.0776                 3.4896

                    43                     44                     45
                     A                      A                      A
 Frequencies --  1498.9090              1521.9677              1525.4647
 Red. masses --     1.2873                 1.0484                 1.8861
 Frc consts  --     1.7041                 1.4309                 2.5859
 IR Inten    --    25.0037                 5.0649                34.7267

                    46                     47                     48
                     A                      A                      A
 Frequencies --  1535.6193              1567.5337              1623.2719
 Red. masses --     1.0980                 3.2576                 6.9933
 Frc consts  --     1.5256                 4.7161                10.8572
 IR Inten    --    25.5813                61.7142                 3.2863

                    49                     50                     51
                     A                      A                      A
 Frequencies --  1663.0757              1690.4963              3023.6142
 Red. masses --     5.2206                 6.2365                 1.0350
 Frc consts  --     8.5074                10.5008                 5.5750
 IR Inten    --    53.5201                81.8519                69.9172

                    52                     53                     54
                     A                      A                      A
 Frequencies --  3082.0991              3155.3330              3175.3679
 Red. masses --     1.1068                 1.0993                 1.0859
 Frc consts  --     6.1944                 6.4486                 6.4512
 IR Inten    --    46.0061                29.5458                 3.0428

                    55                     56                     57
                     A                      A                      A
 Frequencies --  3179.9600              3182.9784              3194.4189
 Red. masses --     1.0880                 1.0887                 1.0933
 Frc consts  --     6.4820                 6.4987                 6.5731
 IR Inten    --     2.1733                11.5063                33.8866

                    58                     59                     60
                     A                      A                      A
 Frequencies --  3204.0982              3207.9531              3227.7025
 Red. masses --     1.0907                 1.0968                 1.0914
 Frc consts  --     6.5975                 6.6501                 6.6992
 IR Inten    --    13.1244                29.3187                13.1082

 - Thermochemistry -
 -------------------
 Temperature   298.150 Kelvin.  Pressure   1.00000 Atm.
 Atom     1 has atomic number  6 and mass  12.00000

 Molecular mass:   158.07317 amu.
 Principal axes and moments of inertia in atomic units:
                           1         2         3
     Eigenvalues --   649.339963152.008213789.81977
           X            0.99996   0.00891   0.00000
           Y           -0.00891   0.99996  -0.00000
           Z           -0.00000   0.00000   1.00000
 This molecule is an asymmetric top.
 Rotational symmetry number  1.
 Warning -- assumption of classical behavior for rotation
           may cause significant error
 Rotational temperatures (Kelvin)      0.13339     0.02748     0.02285
 Rotational constants (GHZ):           2.77935     0.57257     0.47621
 Zero-point vibrational energy     473726.7 (Joules/Mol)
                                  113.22339 (Kcal/Mol)
 Warning -- explicit consideration of  13 degrees of freedom as
           vibrations may cause significant error
 Vibrational temperatures:     93.17   188.18   264.01   303.99   348.86
          (Kelvin)            449.13   491.28   577.24   598.03   699.70
                              755.71   780.97   801.80   909.04   940.55
                             1027.84  1097.34  1105.59  1127.08  1179.34
                             1246.68  1283.06  1292.25  1358.39  1376.92
                             1394.27  1419.30  1507.91  1556.10  1669.23
                             1703.59  1706.95  1713.53  1733.26  1755.55
                             1825.87  1863.57  1893.27  2013.92  2033.60
                             2043.83  2142.41  2156.59  2189.77  2194.80
                             2209.41  2255.33  2335.52  2392.79  2432.24
                             4350.30  4434.45  4539.81  4568.64  4575.25
                             4579.59  4596.05  4609.98  4615.52  4643.94

 Zero-point correction=                           0.180433 (Hartree/Particle)
 Thermal correction to Energy=                    0.189883
 Thermal correction to Enthalpy=                  0.190828
 Thermal correction to Gibbs Free Energy=         0.145641
 Sum of electronic and zero-point Energies=           -500.233630
 Sum of electronic and thermal Energies=              -500.224180
 Sum of electronic and thermal Enthalpies=            -500.223236
 Sum of electronic and thermal Free Energies=         -500.268422

                     E (Thermal)             CV                S
                      KCal/Mol        Cal/Mol-Kelvin    Cal/Mol-Kelvin
 Total                  119.154             38.051             95.103
 Electronic               0.000              0.000              0.000
 Translational            0.889              2.981             41.083
 Rotational               0.889              2.981             30.429
 Vibrational            117.376             32.090             23.591
 Vibration     1          0.597              1.971              4.307
 Vibration     2          0.612              1.923              2.934
 Vibration     3          0.631              1.862              2.293
 Vibration     4          0.643              1.824              2.033
 Vibration     5          0.659              1.775              1.785
 Vibration     6          0.701              1.651              1.351
 Vibration     7          0.721              1.593              1.205
 Vibration     8          0.767              1.468              0.958
 Vibration     9          0.779              1.436              0.907
 Vibration    10          0.842              1.280              0.693
 Vibration    11          0.880              1.194              0.598
 Vibration    12          0.898              1.155              0.559
 Vibration    13          0.913              1.124              0.529

 Optimization completed.
    -- Stationary point found.
 Normal termination of Gaussian 09 at Fri Sep 10 11:49:26 2021.
