 Gaussian 09, Revision A.02,
 Gaussian 09:  AM64L-G09RevA.02 11-Jun-2009

 ----------------------------------
 #p b3lyp 6-31G* opt scf(xqc,tight)
 ----------------------------------

 ---------------
 opt calculation
 ---------------
 Symbolic Z-matrix:
 Charge =  0 Multiplicity = 1

 SCF Done:  E(RB3LYP) =  -539.725207385     A.U. after   14 cycles
 SCF Done:  E(RB3LYP) =  -539.729374036     A.U. after   12 cycles
 SCF Done:  E(RB3LYP) =  -539.729652241     A.U. after   11 cycles
 SCF Done:  E(RB3LYP) =  -539.729667940     A.U. after    9 cycles
 SCF Done:  E(RB3LYP) =  -539.729670607     A.U. after    8 cycles
 SCF Done:  E(RB3LYP) =  -539.729670875     A.U. after    7 cycles
 Optimization completed.
    -- Stationary point found.

                         Standard orientation:
 ---------------------------------------------------------------------
 Center     Atomic      Atomic             Coordinates (Angstroms)
 Number     Number       Type             X           Y           Z
 ---------------------------------------------------------------------
      1          6           0        3.948387   -0.493509    0.000000
      2          8           0        2.868183    0.422988    0.000001
      3          6           0        1.583051   -0.057796    0.000000
      4          6           0        1.296816   -1.447723    0.000000
      5          6           0       -0.006072   -1.886335   -0.000000
      6          6           0       -1.084258   -0.968971   -0.000000
      7          6           0       -2.436176   -1.405051   -0.000000
      8          6           0       -3.473197   -0.501472    0.000000
      9          6           0       -3.192911    0.886339    0.000000
     10          6           0       -1.893211    1.341293    0.000000
     11          6           0       -0.792137    0.436351   -0.000000
     12          6           0        0.562358    0.888948   -0.000000
     13          6           0        0.884986    2.364487   -0.000001
     14          1           0        3.944408   -1.130183   -0.894852
     15          1           0        4.854389    0.115999    0.000000
     16          1           0        3.944409   -1.130184    0.894851
     17          1           0        2.103687   -2.171131    0.000000
     18          1           0       -0.219079   -2.952679   -0.000000
     19          1           0       -2.635513   -2.474560   -0.000000
     20          1           0       -4.503471   -0.846658    0.000000
     21          1           0       -4.013447    1.599307    0.000001
     22          1           0       -1.702886    2.409424    0.000001
     23          1           0        1.962769    2.527049   -0.000007
     24          1           0        0.466720    2.865174   -0.882519
     25          1           0        0.466731    2.865172    0.882524
 ---------------------------------------------------------------------

 The electronic state is 1-A.
 Alpha  occ. eigenvalues --  -19.17471 -10.24257 -10.24126 -10.19041 -10.18788
 Alpha  occ. eigenvalues --  -10.18758 -10.18706 -10.18700 -10.18397 -10.18383
 Alpha  occ. eigenvalues --  -10.18168 -10.18051 -10.17229  -1.06001  -0.86468
 Alpha  occ. eigenvalues --   -0.81333  -0.78043  -0.73959  -0.72855  -0.70096
 Alpha  occ. eigenvalues --   -0.66846  -0.61711  -0.59584  -0.57188  -0.52702
 Alpha  occ. eigenvalues --   -0.50924  -0.49870  -0.46754  -0.46056  -0.44277
 Alpha  occ. eigenvalues --   -0.43057  -0.42188  -0.41340  -0.40612  -0.39842
 Alpha  occ. eigenvalues --   -0.37874  -0.37211  -0.37101  -0.34574  -0.33693
 Alpha  occ. eigenvalues --   -0.33316  -0.31402  -0.29707  -0.26416  -0.22671
 Alpha  occ. eigenvalues --   -0.19492
 Alpha virt. eigenvalues --   -0.03171   0.00519   0.04271   0.09546   0.10505
 Alpha virt. eigenvalues --    0.10881   0.10934   0.13275   0.14014   0.15156
 Alpha virt. eigenvalues --    0.16420   0.16545   0.17589   0.18026   0.18295

 Mulliken atomic charges:
              1
     1  C   -0.212486
     2  O   -0.516711
     3  C    0.311390
     4  C   -0.187038
     5  C   -0.210215
     6  C    0.148571
     7  C   -0.193464
     8  C   -0.139034
     9  C   -0.131985
    10  C   -0.200809
    11  C    0.072584
    12  C    0.065229
    13  C   -0.537474
    14  H    0.151390
    15  H    0.168674
    16  H    0.151390
    17  H    0.131033
    18  H    0.128611
    19  H    0.125460
    20  H    0.125457
    21  H    0.125672
    22  H    0.127439
    23  H    0.180485
    24  H    0.157916
    25  H    0.157917
 Sum of Mulliken atomic charges =  -0.00000

 Dipole moment (field-independent basis, Debye):
    X=              1.2216    Y=             -0.9069    Z=             -0.0000  Tot=              1.5215
 Quadrupole moment (field-independent basis, Debye-Ang):
   XX=            -64.0061   YY=            -69.6629   ZZ=            -79.8487
   XY=             -3.7467   XZ=             -0.0000   YZ=              0.0000

 Normal termination of Gaussian 09 at Fri Sep  3 00:33:26 2021.
