 Gaussian 09, Revision A.02,
 Gaussian 09:  AM64L-G09RevA.02 11-Jun-2009

 ----------------------------------
 #p b3lyp 6-31G* opt scf(xqc,tight)
 ----------------------------------

 ---------------
 opt calculation
 ---------------
 Symbolic Z-matrix:
 Charge =  0 Multiplicity = 1

 SCF Done:  E(RB3LYP) =  -855.034559895     A.U. after   14 cycles
 SCF Done:  E(RB3LYP) =  -855.042824572     A.U. after   12 cycles
 SCF Done:  E(RB3LYP) =  -855.043695413     A.U. after   11 cycles
 SCF Done:  E(RB3LYP) =  -855.043753521     A.U. after   10 cycles
 SCF Done:  E(RB3LYP) =  -855.043763272     A.U. after    8 cycles
 SCF Done:  E(RB3LYP) =  -855.043763556     A.U. after    7 cycles
 SCF Done:  E(RB3LYP) =  -855.043763759     A.U. after    7 cycles
 SCF Done:  E(RB3LYP) =  -855.043763852     A.U. after    7 cycles
 SCF Done:  E(RB3LYP) =  -855.043763948     A.U. after    7 cycles
 SCF Done:  E(RB3LYP) =  -855.043764060     A.U. after    7 cycles
 SCF Done:  E(RB3LYP) =  -855.043764233     A.U. after    8 cycles
 SCF Done:  E(RB3LYP) =  -855.043764352     A.U. after    8 cycles
 SCF Done:  E(RB3LYP) =  -855.043764434     A.U. after    7 cycles
 Optimization completed.
    -- Stationary point found.

                         Standard orientation:
 ---------------------------------------------------------------------
 Center     Atomic      Atomic             Coordinates (Angstroms)
 Number     Number       Type             X           Y           Z
 ---------------------------------------------------------------------
      1          6           0       -0.431379    3.153145   -0.000793
      2          8           0       -1.720259    2.521421   -0.000420
      3          6           0       -1.751646    1.188502   -0.000114
      4          7           0       -2.981503    0.663574   -0.000015
      5          6           0       -2.986393   -0.671008    0.000206
      6          8           0       -4.154190   -1.313302    0.000231
      7          6           0       -5.348360   -0.518090    0.000086
      8          7           0       -1.917321   -1.478234    0.000229
      9          6           0       -0.768092   -0.816564    0.000115
     10          8           0        0.322478   -1.606201    0.000007
     11          6           0        1.598378   -1.029954    0.000031
     12          6           0        2.243754   -0.801769   -1.210664
     13          6           0        3.553462   -0.323009   -1.201660
     14          6           0        4.228592   -0.070279    0.000107
     15          6           0        5.638510    0.474110    0.000237
     16          6           0        3.552716   -0.321222    1.201876
     17          6           0        2.243038   -0.799956    1.210806
     18          7           0       -0.601718    0.511748   -0.000051
     19          1           0       -0.642831    4.223086   -0.002059
     20          1           0        0.139069    2.874721    0.889072
     21          1           0        0.139639    2.872655   -0.889623
     22          1           0       -6.166247   -1.239607    0.000101
     23          1           0       -5.394431    0.115441   -0.889541
     24          1           0       -5.394536    0.115599    0.889596
     25          1           0        1.726353   -1.008564   -2.142198
     26          1           0        4.061059   -0.149134   -2.147620
     27          1           0        6.193045    0.151294   -0.887257
     28          1           0        5.642761    1.572454    0.004245
     29          1           0        6.195374    0.144939    0.883964
     30          1           0        4.059737   -0.145938    2.147892
     31          1           0        1.725093   -1.005350    2.142346
 ---------------------------------------------------------------------

 The electronic state is 1-A.
 Alpha  occ. eigenvalues --  -19.20050 -19.19773 -19.19298 -14.33602 -14.33194
 Alpha  occ. eigenvalues --  -14.32798 -10.32612 -10.32474 -10.32052 -10.25061
 Alpha  occ. eigenvalues --  -10.24340 -10.23901 -10.20204 -10.19542 -10.19541
 Alpha  occ. eigenvalues --  -10.19446 -10.19445 -10.18874  -1.11180  -1.09752
 Alpha  occ. eigenvalues --   -1.09233  -0.99462  -0.89910  -0.89439  -0.85946
 Alpha  occ. eigenvalues --   -0.77870  -0.75240  -0.74135  -0.73214  -0.70055
 Alpha  occ. eigenvalues --   -0.65252  -0.63386  -0.61980  -0.59828  -0.57569
 Alpha  occ. eigenvalues --   -0.56143  -0.52481  -0.50557  -0.50233  -0.48271
 Alpha  occ. eigenvalues --   -0.47835  -0.47477  -0.45197  -0.44089  -0.44068
 Alpha  occ. eigenvalues --   -0.43428  -0.42815  -0.42392  -0.40888  -0.40275
 Alpha  occ. eigenvalues --   -0.38675  -0.38091  -0.37132  -0.36169  -0.36134
 Alpha  occ. eigenvalues --   -0.35435  -0.34907  -0.34573  -0.30277  -0.27941
 Alpha  occ. eigenvalues --   -0.27582  -0.27236  -0.26823  -0.25568  -0.23852
 Alpha virt. eigenvalues --   -0.01553  -0.00872  -0.00336  -0.00166   0.08761
 Alpha virt. eigenvalues --    0.11241   0.11699   0.11894   0.12578   0.12935
 Alpha virt. eigenvalues --    0.13014   0.13785   0.14382   0.15340   0.15863

 Mulliken atomic charges:
              1
     1  C   -0.211502
     2  O   -0.459582
     3  C    0.681355
     4  N   -0.520811
     5  C    0.678927
     6  O   -0.456440
     7  C   -0.210343
     8  N   -0.488110
     9  C    0.659931
    10  O   -0.529603
    11  C    0.350879
    12  C   -0.143108
    13  C   -0.196423
    14  C    0.187123
    15  C   -0.531169
    16  C   -0.196342
    17  C   -0.143063
    18  N   -0.526925
    19  H    0.168359
    20  H    0.173151
    21  H    0.173222
    22  H    0.168444
    23  H    0.172065
    24  H    0.172060
    25  H    0.142964
    26  H    0.128916
    27  H    0.159129
    28  H    0.165817
    29  H    0.159212
    30  H    0.128913
    31  H    0.142956
 Sum of Mulliken atomic charges =  -0.00000

 Dipole moment (field-independent basis, Debye):
    X=              1.8267    Y=              2.9167    Z=              0.0001  Tot=              3.4415
 Quadrupole moment (field-independent basis, Debye-Ang):
   XX=            -85.3739   YY=           -107.8402   ZZ=            -96.3032
   XY=              2.0755   XZ=              0.0015   YZ=              0.0043

 Normal termination of Gaussian 09 at Fri Sep  3 01:37:35 2021.
