 Gaussian 09, Revision A.02,
 Gaussian 09:  AM64L-G09RevA.02 11-Jun-2009

 ----------------------------------
 #p b3lyp 6-31G* opt scf(xqc,tight)
 ----------------------------------

 ---------------
 opt calculation
 ---------------
 Symbolic Z-matrix:
 Charge =  0 Multiplicity = 1

 SCF Done:  E(RB3LYP) =  -559.355056390     A.U. after   14 cycles
 SCF Done:  E(RB3LYP) =  -559.357571433     A.U. after   12 cycles
 SCF Done:  E(RB3LYP) =  -559.357903717     A.U. after   11 cycles
 SCF Done:  E(RB3LYP) =  -559.358047854     A.U. after   12 cycles
 SCF Done:  E(RB3LYP) =  -559.358102303     A.U. after   11 cycles
 SCF Done:  E(RB3LYP) =  -559.358127258     A.U. after   10 cycles
 SCF Done:  E(RB3LYP) =  -559.358129735     A.U. after    8 cycles
 SCF Done:  E(RB3LYP) =  -559.358130061     A.U. after    7 cycles
 SCF Done:  E(RB3LYP) =  -559.358130114     A.U. after    7 cycles
 Optimization completed.
    -- Stationary point found.

                         Standard orientation:
 ---------------------------------------------------------------------
 Center     Atomic      Atomic             Coordinates (Angstroms)
 Number     Number       Type             X           Y           Z
 ---------------------------------------------------------------------
      1          6           0        4.515471   -0.950579    0.016977
      2          8           0        3.781074    0.244677    0.219237
      3          6           0        2.427563    0.210538    0.026950
      4          6           0        1.703894   -0.924004   -0.361428
      5          6           0        0.321194   -0.836890   -0.525858
      6          6           0       -0.377403    0.357831   -0.313773
      7          6           0       -1.889094    0.390258   -0.557098
      8          6           0       -2.550432    1.734055   -0.193214
      9          7           0       -2.523430   -0.793808    0.058397
     10          6           0       -3.831520   -1.114268   -0.488947
     11          6           0       -2.530692   -0.790813    1.515202
     12          6           0        0.367291    1.480683    0.075542
     13          6           0        1.747480    1.414015    0.244821
     14          1           0        4.428834   -1.310210   -1.017270
     15          1           0        4.191180   -1.746475    0.700987
     16          1           0        5.557979   -0.701142    0.224353
     17          1           0        2.201164   -1.871627   -0.536360
     18          1           0       -0.239041   -1.722818   -0.809580
     19          1           0       -2.038815    0.249903   -1.638072
     20          1           0       -3.630188    1.687439   -0.368574
     21          1           0       -2.390675    2.001124    0.856987
     22          1           0       -2.154175    2.546733   -0.811313
     23          1           0       -3.774119   -1.166317   -1.582167
     24          1           0       -4.145692   -2.097972   -0.120044
     25          1           0       -4.628757   -0.393503   -0.222776
     26          1           0       -2.813469   -1.786815    1.875990
     27          1           0       -1.527188   -0.567405    1.888738
     28          1           0       -3.236145   -0.063491    1.959165
     29          1           0       -0.126319    2.430769    0.253223
     30          1           0        2.318331    2.286093    0.548985
 ---------------------------------------------------------------------

 The electronic state is 1-A.
 Alpha  occ. eigenvalues --  -19.17176 -14.31793 -10.23878 -10.23724 -10.21376
 Alpha  occ. eigenvalues --  -10.19766 -10.19269 -10.18122 -10.18002 -10.17935
 Alpha  occ. eigenvalues --  -10.17783 -10.17603 -10.17147  -1.05725  -0.91333
 Alpha  occ. eigenvalues --   -0.84161  -0.76924  -0.74121  -0.72447  -0.69842
 Alpha  occ. eigenvalues --   -0.68704  -0.64860  -0.59959  -0.58852  -0.55134
 Alpha  occ. eigenvalues --   -0.52626  -0.47866  -0.47516  -0.47289  -0.46323
 Alpha  occ. eigenvalues --   -0.44841  -0.43639  -0.42421  -0.41639  -0.40883
 Alpha  occ. eigenvalues --   -0.39861  -0.38564  -0.37425  -0.37268  -0.36884
 Alpha  occ. eigenvalues --   -0.35792  -0.34769  -0.34345  -0.32900  -0.31619
 Alpha  occ. eigenvalues --   -0.30509  -0.24228  -0.21042  -0.20038
 Alpha virt. eigenvalues --    0.00647   0.01813   0.08481   0.10158   0.11370
 Alpha virt. eigenvalues --    0.12275   0.13626   0.13928   0.14779   0.15423
 Alpha virt. eigenvalues --    0.15805   0.16313   0.16754   0.16958   0.17879

 Mulliken atomic charges:
              1
     1  C   -0.212877
     2  O   -0.509560
     3  C    0.377017
     4  C   -0.197237
     5  C   -0.173744
     6  C    0.138576
     7  C   -0.025362
     8  C   -0.472942
     9  N   -0.366787
    10  C   -0.295307
    11  C   -0.304222
    12  C   -0.191661
    13  C   -0.179873
    14  H    0.150306
    15  H    0.150347
    16  H    0.167308
    17  H    0.127699
    18  H    0.138590
    19  H    0.137359
    20  H    0.148178
    21  H    0.151672
    22  H    0.149320
    23  H    0.144897
    24  H    0.147082
    25  H    0.118744
    26  H    0.144378
    27  H    0.161343
    28  H    0.119059
    29  H    0.124707
    30  H    0.132993
 Sum of Mulliken atomic charges =  -0.00000

 Dipole moment (field-independent basis, Debye):
    X=             -0.0960    Y=             -0.8413    Z=             -0.1943  Tot=              0.8688
 Quadrupole moment (field-independent basis, Debye-Ang):
   XX=            -70.7534   YY=            -76.2224   ZZ=            -80.2664
   XY=             -5.7660   XZ=             -0.0758   YZ=              0.6190

 Normal termination of Gaussian 09 at Fri Sep  3 00:47:24 2021.
