 Gaussian 09, Revision A.02,
 Gaussian 09:  AM64L-G09RevA.02 11-Jun-2009

 ----------------------------------
 #p b3lyp 6-31G* opt scf(xqc,tight)
 ----------------------------------

 ---------------
 opt calculation
 ---------------
 Symbolic Z-matrix:
 Charge =  0 Multiplicity = 1

 SCF Done:  E(RB3LYP) =  -987.746074015     A.U. after   14 cycles
 SCF Done:  E(RB3LYP) =  -987.757095290     A.U. after   12 cycles
 SCF Done:  E(RB3LYP) =  -987.759011434     A.U. after   12 cycles
 SCF Done:  E(RB3LYP) =  -987.759143623     A.U. after   11 cycles
 SCF Done:  E(RB3LYP) =  -987.759172211     A.U. after   10 cycles
 SCF Done:  E(RB3LYP) =  -987.759176197     A.U. after    8 cycles
 SCF Done:  E(RB3LYP) =  -987.759177936     A.U. after    7 cycles
 SCF Done:  E(RB3LYP) =  -987.759178738     A.U. after    7 cycles
 SCF Done:  E(RB3LYP) =  -987.759179493     A.U. after    7 cycles
 SCF Done:  E(RB3LYP) =  -987.759180448     A.U. after    7 cycles
 SCF Done:  E(RB3LYP) =  -987.759181124     A.U. after    7 cycles
 SCF Done:  E(RB3LYP) =  -987.759181308     A.U. after    7 cycles
 Optimization completed.
    -- Stationary point found.

                         Standard orientation:
 ---------------------------------------------------------------------
 Center     Atomic      Atomic             Coordinates (Angstroms)
 Number     Number       Type             X           Y           Z
 ---------------------------------------------------------------------
      1          6           0        3.405142    1.675219   -1.256587
      2          6           0        3.569614    0.792989   -0.000001
      3          6           0        4.983556    0.171157    0.000004
      4          6           0        3.405138    1.675229    1.256577
      5         14           0        2.249628   -0.588862    0.000002
      6          6           0        2.365327   -1.663069   -1.549974
      7          6           0        2.365321   -1.663059    1.549985
      8          8           0        0.794124    0.277259   -0.000004
      9          6           0       -0.525556   -0.062394   -0.000002
     10          6           0       -0.964902   -1.414783   -0.000003
     11          6           0       -2.309234   -1.707421   -0.000002
     12          6           0       -3.289590   -0.681488   -0.000001
     13          6           0       -4.683060   -0.956274    0.000000
     14          6           0       -5.604418    0.066376    0.000001
     15          6           0       -5.167668    1.414738    0.000001
     16          6           0       -3.824314    1.714604    0.000000
     17          6           0       -2.845657    0.681909   -0.000001
     18          6           0       -1.456058    0.958789   -0.000001
     19          1           0        4.148106    2.485870   -1.251999
     20          1           0        2.411150    2.133547   -1.300137
     21          1           0        3.553405    1.104284   -2.181476
     22          1           0        5.163169   -0.449349   -0.886748
     23          1           0        5.163165   -0.449343    0.886762
     24          1           0        5.745825    0.963346    0.000003
     25          1           0        3.553398    1.104301    2.181472
     26          1           0        2.411145    2.133557    1.300121
     27          1           0        4.148101    2.485880    1.251986
     28          1           0        2.231676   -1.066539   -2.459164
     29          1           0        3.344897   -2.152600   -1.612520
     30          1           0        1.604954   -2.451901   -1.559537
     31          1           0        3.344890   -2.152592    1.612535
     32          1           0        2.231671   -1.066523    2.459171
     33          1           0        1.604945   -2.451888    1.559552
     34          1           0       -0.235803   -2.218257   -0.000004
     35          1           0       -2.635479   -2.745008   -0.000002
     36          1           0       -5.010885   -1.993595   -0.000000
     37          1           0       -6.668121   -0.155372    0.000002
     38          1           0       -5.902130    2.215952    0.000002
     39          1           0       -3.491254    2.749863    0.000001
     40          1           0       -1.106457    1.987237   -0.000001
 ---------------------------------------------------------------------

 The electronic state is 1-A.
 Alpha  occ. eigenvalues --  -66.14757 -19.15455 -10.24771 -10.19309 -10.19079
 Alpha  occ. eigenvalues --  -10.18943 -10.18873 -10.18528 -10.18514 -10.18308
 Alpha  occ. eigenvalues --  -10.18295 -10.18203 -10.17705 -10.17685 -10.17122
 Alpha  occ. eigenvalues --  -10.17121 -10.16652 -10.16652  -5.28857  -3.64987
 Alpha  occ. eigenvalues --   -3.64641  -3.64613  -1.02643  -0.86378  -0.81015
 Alpha  occ. eigenvalues --   -0.79652  -0.76552  -0.73041  -0.71509  -0.70212
 Alpha  occ. eigenvalues --   -0.68576  -0.68112  -0.67500  -0.62176  -0.61220
 Alpha  occ. eigenvalues --   -0.59074  -0.55945  -0.53143  -0.50959  -0.49738
 Alpha  occ. eigenvalues --   -0.46617  -0.45478  -0.44434  -0.43253  -0.43093
 Alpha  occ. eigenvalues --   -0.42598  -0.42002  -0.41803  -0.41447  -0.40995
 Alpha  occ. eigenvalues --   -0.39744  -0.39553  -0.39462  -0.39112  -0.38012
 Alpha  occ. eigenvalues --   -0.37704  -0.37475  -0.36739  -0.36001  -0.34378
 Alpha  occ. eigenvalues --   -0.33189  -0.32791  -0.32506  -0.31076  -0.30960
 Alpha  occ. eigenvalues --   -0.29323  -0.27262  -0.26534  -0.22782  -0.20016
 Alpha virt. eigenvalues --   -0.03112   0.00223   0.03982   0.06095   0.07214
 Alpha virt. eigenvalues --    0.08821   0.09587   0.10647   0.11241   0.11631
 Alpha virt. eigenvalues --    0.12083   0.12576   0.12814   0.13604   0.14355

 Mulliken atomic charges:
              1
     1  C   -0.455762
     2  C   -0.089300
     3  C   -0.460166
     4  C   -0.455762
     5  Si   0.927587
     6  C   -0.692861
     7  C   -0.692861
     8  O   -0.637894
     9  C    0.399128
    10  C   -0.192174
    11  C   -0.207005
    12  C    0.140570
    13  C   -0.192119
    14  C   -0.139014
    15  C   -0.136197
    16  C   -0.192284
    17  C    0.140155
    18  C   -0.265953
    19  H    0.133632
    20  H    0.161342
    21  H    0.139079
    22  H    0.142519
    23  H    0.142519
    24  H    0.140276
    25  H    0.139079
    26  H    0.161342
    27  H    0.133632
    28  H    0.172671
    29  H    0.163331
    30  H    0.165794
    31  H    0.163331
    32  H    0.172671
    33  H    0.165794
    34  H    0.135255
    35  H    0.130800
    36  H    0.126087
    37  H    0.126117
    38  H    0.127225
    39  H    0.127698
    40  H    0.131717
 Sum of Mulliken atomic charges =  -0.00000

 Dipole moment (field-independent basis, Debye):
    X=              1.0823    Y=             -1.0804    Z=              0.0000  Tot=              1.5292
 Quadrupole moment (field-independent basis, Debye-Ang):
   XX=           -108.2345   YY=           -108.8958   ZZ=           -119.7035
   XY=             -1.5022   XZ=              0.0000   YZ=              0.0000

 Normal termination of Gaussian 09 at Fri Sep  3 02:07:25 2021.
